 DBCSR| CPU Multiplication driver                                           XSMM
 DBCSR| Multrec recursion limit                                              512
 DBCSR| Multiplication stack size                                           1000
 DBCSR| Maximum elements for images                                    UNLIMITED
 DBCSR| Multiplicative factor virtual images                                   1
 DBCSR| Use multiplication densification                                       T
 DBCSR| Multiplication size stacks                                             3
 DBCSR| Use memory pool for CPU allocation                                     F
 DBCSR| Number of 3D layers                                               SINGLE
 DBCSR| Use MPI memory allocation                                              F
 DBCSR| Use RMA algorithm                                                      F
 DBCSR| Use Communication thread                                               T
 DBCSR| Communication thread load                                             87
 DBCSR| MPI: My node id                                                        0
 DBCSR| MPI: Number of nodes                                                  12
 DBCSR| OMP: Current number of threads                                         1
 DBCSR| OMP: Max number of threads                                             1
 DBCSR| Split modifier for TAS multiplication algorithm                  1.0E+00


  **** **** ******  **  PROGRAM STARTED AT               2024-11-21 15:43:05.437
 ***** ** ***  *** **   PROGRAM STARTED ON                     cm048.hpc.nyu.edu
 **    ****   ******    PROGRAM STARTED BY                               yhp2008
 ***** **    ** ** **   PROGRAM PROCESS ID                               2733560
  **** **  *******  **  PROGRAM STARTED IN /home/yhp2008/comp-lab-class-2024/Wee
                                           k12-IntroAIMD/Proton

 CP2K| version string:                    CP2K version 8.0 (Development Version)
 CP2K| source code revision number:                                  git:8c64c6e
 CP2K| cp2kflags: omp libint fftw3 libxc elpa parallel mpi3 scalapack xsmm max_c
 CP2K|            ontr=4 mkl
 CP2K| is freely available from                            https://www.cp2k.org/
 CP2K| Program compiled at                          Sat Dec 12 18:27:15 EST 2020
 CP2K| Program compiled on                                     cs001.nyu.cluster
 CP2K| Program compiled for                                            nyu-intel
 CP2K| Data directory path                    /home/wang/cp2k-20201212/cp2k/data
 CP2K| Input file name                                                Proton.inp
 
 GLOBAL| Force Environment number                                              1
 GLOBAL| Basis set file name                                           HFX_BASIS
 GLOBAL| Potential file name                                      GTH_POTENTIALS
 GLOBAL| MM Potential file name                                     MM_POTENTIAL
 GLOBAL| Coordinate file name                                         Proton.xyz
 GLOBAL| Method name                                                        CP2K
 GLOBAL| Project name                                 proton_aimd_1ns_every0.5fs
 GLOBAL| Preferred FFT library                                             FFTW3
 GLOBAL| Preferred diagonalization lib.                                     ELPA
 GLOBAL| Run type                                                             MD
 GLOBAL| All-to-all communication in single precision                          F
 GLOBAL| FFTs using library dependent lengths                                  F
 GLOBAL| Global print level                                                  LOW
 GLOBAL| MPI I/O enabled                                                       T
 GLOBAL| Total number of message passing processes                            12
 GLOBAL| Number of threads for this process                                    1
 GLOBAL| This output is from process                                           0
 GLOBAL| CPU model name             Intel(R) Xeon(R) Platinum 8268 CPU @ 2.90GHz
 GLOBAL| CPUID                                                              1003
 GLOBAL| Compiled for CPUID                                                    0

 *** HINT in environment.F:801 :: The compiler target flags (generic) used ***
 *** to build this binary cannot exploit all extensions of this CPU model  ***
 *** (x86_avx512). Consider compiler target flags as part of FCFLAGS and   ***
 *** CFLAGS (ARCH file).                                                   ***


 MEMORY| system memory details [Kb]
 MEMORY|                        rank 0           min           max       average
 MEMORY| MemTotal            395094988     395094988     395094988     395094988
 MEMORY| MemFree             230788012     230788012     230788012     230788012
 MEMORY| Buffers                 14428         14428         14428         14428
 MEMORY| Cached              128507632     128507632     128507632     128507632
 MEMORY| Slab                  1514424       1514424       1514424       1514424
 MEMORY| SReclaimable           887484        887484        887484        887484
 MEMORY| MemLikelyFree       360197556     360197556     360197556     360197556

 
 GENERATE|  Preliminary Number of Bonds generated:                             0
 GENERATE|  Achieved consistency in connectivity generation.

 *******************************************************************************
 *******************************************************************************
 **                                                                           **
 **     #####                         ##              ##                      **
 **    ##   ##            ##          ##              ##                      **
 **   ##     ##                       ##            ######                    **
 **   ##     ##  ##   ##  ##   #####  ##  ##   ####   ##    #####    #####    **
 **   ##     ##  ##   ##  ##  ##      ## ##   ##      ##   ##   ##  ##   ##   **
 **   ##  ## ##  ##   ##  ##  ##      ####     ###    ##   ######   ######    **
 **    ##  ###   ##   ##  ##  ##      ## ##      ##   ##   ##       ##        **
 **     #######   #####   ##   #####  ##  ##  ####    ##    #####   ##        **
 **           ##                                                    ##        **
 **                                                                           **
 **                                                ... make the atoms dance   **
 **                                                                           **
 **            Copyright (C) by CP2K developers group (2000 - 2020)           **
 **                      J. Chem. Phys. 152, 194103 (2020)                    **
 **                                                                           **
 *******************************************************************************


 TOTAL NUMBERS AND MAXIMUM NUMBERS

  Total number of            - Atomic kinds:                                   2
                             - Atoms:                                        193
                             - Shell sets:                                   579
                             - Shells:                                       707
                             - Primitive Cartesian functions:                965
                             - Cartesian basis functions:                   1541
                             - Spherical basis functions:                   1477

  Maximum angular momentum of- Orbital basis functions:                        2
                             - Local part of the GTH pseudopotential:          2
                             - Non-local part of the GTH pseudopotential:      0


 SCF PARAMETERS         Density guess:                                    ATOMIC
                        --------------------------------------------------------
                        max_scf:                                              30
                        max_scf_history:                                       0
                        max_diis:                                              4
                        --------------------------------------------------------
                        eps_scf:                                        1.00E-06
                        eps_scf_history:                                0.00E+00
                        eps_diis:                                       1.00E-01
                        eps_eigval:                                     1.00E-05
                        --------------------------------------------------------
                        level_shift [a.u.]:                                 0.00
                        --------------------------------------------------------
                        Outer loop SCF in use 
                        No variables optimised in outer loop
                        eps_scf                                         1.00E-06
                        max_scf                                               10
                        No outer loop optimization
                        step_size                                       5.00E-01
 
 MD_PAR| Molecular dynamics protocol (MD input parameters)
 MD_PAR| Ensemble type                                                       NVT
 MD_PAR| Number of time steps                                               2000
 MD_PAR| Time step [fs]                                                 0.500000
 MD_PAR| Temperature [K]                                              300.000000
 MD_PAR| Temperature tolerance [K]                                      0.000000
 MD_PAR| Print MD information every                                    1 step(s)
 MD_PAR| File type   Print frequency [steps]                          File names
 MD_PAR| Coordinates          1             proton_aimd_1ns_every0.5fs-pos-1.xyz
 MD_PAR| Velocities           1             proton_aimd_1ns_every0.5fs-vel-1.xyz
 MD_PAR| Energies             1                proton_aimd_1ns_every0.5fs-1.ener
 MD_PAR| Dump                 1             proton_aimd_1ns_every0.5fs-1.restart

 ROT| Rotational analysis information
 ROT| Principal axes and moments of inertia [a.u.]
 ROT|                           1                   2                   3
 ROT| Eigenvalues      2.05644262141E+08   2.18481174073E+08   2.44828143812E+08
 ROT|      x              0.422406539297     -0.516424867169      0.744901384164
 ROT|      y              0.905711680784      0.208309603770     -0.369179441829
 ROT|      z              0.035483332025      0.830609695072      0.555723373273
 ROT| Number of rotovibrational vectors                                        6

 DOF| Calculation of degrees of freedom
 DOF| Number of atoms                                                        193
 DOF| Number of intramolecular constraints                                     0
 DOF| Number of intermolecular constraints                                     0
 DOF| Invariants (translations + rotations)                                    0
 DOF| Degrees of freedom                                                     579

 DOF| Restraints information
 DOF| Number of intramolecular restraints                                      0
 DOF| Number of intermolecular restraints                                      0

 THERMOSTAT| Thermostat information for PARTICLES
 THERMOSTAT| End of thermostat information for PARTICLES

 MD_VEL| Velocities initialization
 MD_VEL| Initial temperature [K]                                      300.000000
 MD_VEL| COM velocity            -0.0000000000    -0.0000000000     0.0000000000

 Number of electrons:                                                        512
 Number of occupied orbitals:                                                256
 Number of molecular orbitals:                                               256

 Number of orbital functions:                                               1477
 Number of independent orbital functions:                                   1477

 Extrapolation method: initial_guess


 SCF WAVEFUNCTION OPTIMIZATION

  ----------------------------------- OT ---------------------------------------
  Minimizer      : DIIS                : direct inversion
                                         in the iterative subspace
                                         using   7 DIIS vectors
                                         safer DIIS on
  Preconditioner : FULL_SINGLE_INVERSE : inversion of 
                                         H + eS - 2*(Sc)(c^T*H*c+const)(Sc)^T
  Precond_solver : DEFAULT
  stepsize       :    0.08000000                  energy_gap     :    0.08000000
  eps_taylor     :   0.10000E-15                  max_taylor     :             4
  ----------------------------------- OT ---------------------------------------

  Step     Update method      Time    Convergence         Total energy    Change
  ------------------------------------------------------------------------------
     1 OT DIIS     0.80E-01   66.4     0.03018370     -1059.2278429552 -1.06E+03
     2 OT DIIS     0.80E-01   30.7     0.02249743     -1078.7699997591 -1.95E+01
     3 OT DIIS     0.80E-01   31.4     0.01742813     -1088.3443345796 -9.57E+00
     4 OT DIIS     0.80E-01   31.7     0.01077381     -1096.5726547135 -8.23E+00
     5 OT DIIS     0.80E-01   31.7     0.00632052     -1099.9924904287 -3.42E+00
     6 OT DIIS     0.80E-01   31.3     0.00435694     -1101.2835490717 -1.29E+00
     7 OT DIIS     0.80E-01   31.8     0.00356415     -1101.9276451887 -6.44E-01
     8 OT DIIS     0.80E-01   31.6     0.00271540     -1102.3307268383 -4.03E-01
     9 OT DIIS     0.80E-01   31.1     0.00173474     -1102.6058403302 -2.75E-01
    10 OT DIIS     0.80E-01   32.2     0.00134213     -1102.6981176881 -9.23E-02
    11 OT DIIS     0.80E-01   31.6     0.00091289     -1102.7869810579 -8.89E-02
    12 OT DIIS     0.80E-01   31.9     0.00066916     -1102.8330870670 -4.61E-02
    13 OT DIIS     0.80E-01   31.7     0.00056233     -1102.8601264618 -2.70E-02
    14 OT DIIS     0.80E-01   30.5     0.00039018     -1102.8765742711 -1.64E-02
    15 OT DIIS     0.80E-01   31.3     0.00026734     -1102.8863196674 -9.75E-03
    16 OT DIIS     0.80E-01   31.9     0.00019440     -1102.8923734682 -6.05E-03
    17 OT DIIS     0.80E-01   31.9     0.00015411     -1102.8953954107 -3.02E-03
    18 OT DIIS     0.80E-01   31.7     0.00012789     -1102.8972035003 -1.81E-03
    19 OT DIIS     0.80E-01   31.8     0.00010669     -1102.8985995129 -1.40E-03
    20 OT DIIS     0.80E-01   31.9     0.00009354     -1102.8995416279 -9.42E-04
    21 OT DIIS     0.80E-01   31.0     0.00008221     -1102.9003881407 -8.47E-04
    22 OT DIIS     0.80E-01   32.3     0.00007231     -1102.9011845701 -7.96E-04
    23 OT DIIS     0.80E-01   32.2     0.00006517     -1102.9017865013 -6.02E-04
    24 OT DIIS     0.80E-01   31.4     0.00005885     -1102.9022993297 -5.13E-04
    25 OT DIIS     0.80E-01   32.0     0.00005273     -1102.9028051038 -5.06E-04
    26 OT DIIS     0.80E-01   32.1     0.00004718     -1102.9032417529 -4.37E-04
    27 OT DIIS     0.80E-01   31.9     0.00004277     -1102.9035702177 -3.28E-04
    28 OT DIIS     0.80E-01   32.1     0.00003846     -1102.9038728762 -3.03E-04
    29 OT DIIS     0.80E-01   32.2     0.00003491     -1102.9041191905 -2.46E-04
    30 OT DIIS     0.80E-01   30.9     0.00003191     -1102.9043230447 -2.04E-04

  Leaving inner SCF loop after reaching    30 steps.


  Electronic density on regular grids:       -511.9999999887        0.0000000113
  Core density on regular grids:              512.9999999831       -0.0000000169
  Total charge density on r-space grids:        0.9999999944
  Total charge density g-space grids:           0.9999999944

  Overlap energy of the core charge distribution:               0.00008754002629
  Self energy of the core charge distribution:              -2839.62839375007934
  Core Hamiltonian energy:                                    829.96544329445328
  Hartree energy:                                            1178.90900815330383
  Exchange-correlation energy:                               -271.90274046017015
  Dispersion energy:                                           -0.24772782227592

  Total energy:                                             -1102.90432304474189

  outer SCF iter =    1 RMS gradient =   0.32E-04 energy =      -1102.9043230447

  ----------------------------------- OT ---------------------------------------
  Minimizer      : DIIS                : direct inversion
                                         in the iterative subspace
                                         using   7 DIIS vectors
                                         safer DIIS on
  Preconditioner : FULL_SINGLE_INVERSE : inversion of 
                                         H + eS - 2*(Sc)(c^T*H*c+const)(Sc)^T
  Precond_solver : DEFAULT
  stepsize       :    0.08000000                  energy_gap     :    0.08000000
  eps_taylor     :   0.10000E-15                  max_taylor     :             4
  ----------------------------------- OT ---------------------------------------

  Step     Update method      Time    Convergence         Total energy    Change
  ------------------------------------------------------------------------------
     1 OT DIIS     0.80E-01   99.9     0.00015704     -1102.9044834502 -1.60E-04
     2 OT DIIS     0.80E-01   18.9     0.00011468     -1102.9050714160 -5.88E-04
     3 OT DIIS     0.80E-01   19.5     0.00014745     -1102.9053384004 -2.67E-04
     4 OT DIIS     0.80E-01   19.3     0.00011117     -1102.9055903693 -2.52E-04
     5 OT DIIS     0.80E-01   19.1     0.00006238     -1102.9057081221 -1.18E-04
     6 OT DIIS     0.80E-01   19.1     0.00004428     -1102.9058326690 -1.25E-04
     7 OT DIIS     0.80E-01   19.4     0.00004514     -1102.9058985541 -6.59E-05
     8 OT DIIS     0.80E-01   19.5     0.00003614     -1102.9060002299 -1.02E-04
     9 OT DIIS     0.80E-01   19.4     0.00003413     -1102.9060915751 -9.13E-05
    10 OT DIIS     0.80E-01   19.8     0.00002899     -1102.9061481778 -5.66E-05
    11 OT DIIS     0.80E-01   29.8     0.00002814     -1102.9062127320 -6.46E-05
    12 OT DIIS     0.80E-01   28.6     0.00002453     -1102.9062650666 -5.23E-05
    13 OT DIIS     0.80E-01   29.0     0.00002708     -1102.9062963840 -3.13E-05
    14 OT DIIS     0.80E-01   28.2     0.00002219     -1102.9063249690 -2.86E-05
    15 OT DIIS     0.80E-01   28.0     0.00002148     -1102.9063519890 -2.70E-05
    16 OT DIIS     0.80E-01   28.5     0.00002057     -1102.9063779351 -2.59E-05
    17 OT DIIS     0.80E-01   28.5     0.00001967     -1102.9064113053 -3.34E-05
    18 OT DIIS     0.80E-01   28.4     0.00001895     -1102.9064380954 -2.68E-05
    19 OT DIIS     0.80E-01   28.8     0.00001693     -1102.9064601634 -2.21E-05
    20 OT DIIS     0.80E-01   27.9     0.00001608     -1102.9064790176 -1.89E-05
    21 OT DIIS     0.80E-01   28.5     0.00001756     -1102.9065027243 -2.37E-05
    22 OT DIIS     0.80E-01   28.1     0.00001765     -1102.9065156763 -1.30E-05
    23 OT DIIS     0.80E-01   28.1     0.00001373     -1102.9065384841 -2.28E-05
    24 OT DIIS     0.80E-01   28.2     0.00001432     -1102.9065461054 -7.62E-06
    25 OT DIIS     0.80E-01   28.8     0.00001210     -1102.9065549133 -8.81E-06
    26 OT DIIS     0.80E-01   28.5     0.00001091     -1102.9065603812 -5.47E-06
    27 OT DIIS     0.80E-01   28.9     0.00001066     -1102.9065691591 -8.78E-06
    28 OT DIIS     0.80E-01   28.5     0.00001060     -1102.9065761674 -7.01E-06
    29 OT DIIS     0.80E-01   28.6     0.00000953     -1102.9065813346 -5.17E-06
    30 OT DIIS     0.80E-01   28.0     0.00000860     -1102.9065840166 -2.68E-06

  Leaving inner SCF loop after reaching    30 steps.


  Electronic density on regular grids:       -511.9999999887        0.0000000113
  Core density on regular grids:              512.9999999831       -0.0000000169
  Total charge density on r-space grids:        0.9999999944
  Total charge density g-space grids:           0.9999999944

  Overlap energy of the core charge distribution:               0.00008754002629
  Self energy of the core charge distribution:              -2839.62839375007934
  Core Hamiltonian energy:                                    829.96310134512464
  Hartree energy:                                            1178.90860177903028
  Exchange-correlation energy:                               -271.90225310844812
  Dispersion energy:                                           -0.24772782227592

  Total energy:                                             -1102.90658401662199

  outer SCF iter =    2 RMS gradient =   0.86E-05 energy =      -1102.9065840166

  ----------------------------------- OT ---------------------------------------
  Minimizer      : DIIS                : direct inversion
                                         in the iterative subspace
                                         using   7 DIIS vectors
                                         safer DIIS on
  Preconditioner : FULL_SINGLE_INVERSE : inversion of 
                                         H + eS - 2*(Sc)(c^T*H*c+const)(Sc)^T
  Precond_solver : DEFAULT
  stepsize       :    0.08000000                  energy_gap     :    0.08000000
  eps_taylor     :   0.10000E-15                  max_taylor     :             4
  ----------------------------------- OT ---------------------------------------

  Step     Update method      Time    Convergence         Total energy    Change
  ------------------------------------------------------------------------------
     1 OT DIIS     0.80E-01   80.8     0.00000764     -1102.9065861900 -2.17E-06
     2 OT DIIS     0.80E-01   16.3     0.00000804     -1102.9065877568 -1.57E-06
     3 OT DIIS     0.80E-01   16.4     0.00000732     -1102.9065883810 -6.24E-07
     4 OT DIIS     0.80E-01   16.4     0.00000766     -1102.9065905039 -2.12E-06
     5 OT DIIS     0.80E-01   16.4     0.00000578     -1102.9065947871 -4.28E-06
     6 OT DIIS     0.80E-01   16.6     0.00000515     -1102.9065983806 -3.59E-06
     7 OT DIIS     0.80E-01   16.3     0.00000446     -1102.9066000831 -1.70E-06
     8 OT DIIS     0.80E-01   16.2     0.00000442     -1102.9066018536 -1.77E-06
     9 OT DIIS     0.80E-01   16.9     0.00000401     -1102.9066029044 -1.05E-06
    10 OT DIIS     0.80E-01   19.8     0.00000363     -1102.9066055500 -2.65E-06
    11 OT DIIS     0.80E-01   19.3     0.00000388     -1102.9066063615 -8.11E-07
    12 OT DIIS     0.80E-01   19.3     0.00000372     -1102.9066071105 -7.49E-07
    13 OT DIIS     0.80E-01   19.3     0.00000337     -1102.9066077098 -5.99E-07
    14 OT DIIS     0.80E-01   19.2     0.00000332     -1102.9066083032 -5.93E-07
    15 OT DIIS     0.80E-01   19.3     0.00000323     -1102.9066089909 -6.88E-07
    16 OT DIIS     0.80E-01   19.2     0.00000319     -1102.9066096899 -6.99E-07
    17 OT DIIS     0.80E-01   19.4     0.00000315     -1102.9066102168 -5.27E-07
    18 OT DIIS     0.80E-01   19.5     0.00000308     -1102.9066109489 -7.32E-07
    19 OT DIIS     0.80E-01   19.2     0.00000308     -1102.9066115796 -6.31E-07
    20 OT DIIS     0.80E-01   19.6     0.00000310     -1102.9066119728 -3.93E-07
    21 OT DIIS     0.80E-01   19.4     0.00000306     -1102.9066126535 -6.81E-07
    22 OT DIIS     0.80E-01   19.8     0.00000304     -1102.9066132843 -6.31E-07
    23 OT DIIS     0.80E-01   19.3     0.00000302     -1102.9066140045 -7.20E-07
    24 OT DIIS     0.80E-01   18.9     0.00000300     -1102.9066147065 -7.02E-07
    25 OT DIIS     0.80E-01   19.1     0.00000300     -1102.9066152245 -5.18E-07
    26 OT DIIS     0.80E-01   19.5     0.00000297     -1102.9066161511 -9.27E-07
    27 OT DIIS     0.80E-01   18.8     0.00000298     -1102.9066171750 -1.02E-06
    28 OT DIIS     0.80E-01   16.3     0.00000298     -1102.9066177482 -5.73E-07
    29 OT DIIS     0.80E-01   16.5     0.00000294     -1102.9066191564 -1.41E-06
    30 OT DIIS     0.80E-01   16.3     0.00000293     -1102.9066203909 -1.23E-06

  Leaving inner SCF loop after reaching    30 steps.


  Electronic density on regular grids:       -511.9999991161        0.0000008839
  Core density on regular grids:              512.9999999831       -0.0000000169
  Total charge density on r-space grids:        1.0000008670
  Total charge density g-space grids:           1.0000008670

  Overlap energy of the core charge distribution:               0.00008754002629
  Self energy of the core charge distribution:              -2839.62839375007934
  Core Hamiltonian energy:                                    829.96361899425756
  Hartree energy:                                            1178.90812514434924
  Exchange-correlation energy:                               -271.90233049716176
  Dispersion energy:                                           -0.24772782227592

  Total energy:                                             -1102.90662039088375

  outer SCF iter =    3 RMS gradient =   0.29E-05 energy =      -1102.9066203909

  ----------------------------------- OT ---------------------------------------
  Minimizer      : DIIS                : direct inversion
                                         in the iterative subspace
                                         using   7 DIIS vectors
                                         safer DIIS on
  Preconditioner : FULL_SINGLE_INVERSE : inversion of 
                                         H + eS - 2*(Sc)(c^T*H*c+const)(Sc)^T
  Precond_solver : DEFAULT
  stepsize       :    0.08000000                  energy_gap     :    0.08000000
  eps_taylor     :   0.10000E-15                  max_taylor     :             4
  ----------------------------------- OT ---------------------------------------

  Step     Update method      Time    Convergence         Total energy    Change
  ------------------------------------------------------------------------------
     1 OT DIIS     0.80E-01   58.7     0.00000292     -1102.9066220798 -1.69E-06
     2 OT DIIS     0.80E-01   16.3     0.00000353     -1102.9066224025 -3.23E-07
     3 OT DIIS     0.80E-01   16.3     0.00000276     -1102.9066224934 -9.10E-08
     4 OT DIIS     0.80E-01   16.3     0.00000273     -1102.9066225963 -1.03E-07
     5 OT DIIS     0.80E-01   17.4     0.00000276     -1102.9066230738 -4.77E-07
     6 OT DIIS     0.80E-01   19.3     0.00000262     -1102.9066243030 -1.23E-06
     7 OT DIIS     0.80E-01   19.2     0.00000242     -1102.9066280148 -3.71E-06
     8 OT SD       0.80E-01   19.3     0.00000245     -1102.9066302378 -2.22E-06
     9 OT DIIS     0.80E-01   19.2     0.00000308     -1102.9066303472 -1.09E-07
    10 OT DIIS     0.80E-01   19.1     0.00000203     -1102.9066315394 -1.19E-06
    11 OT SD       0.80E-01   19.4     0.00000189     -1102.9066325197 -9.80E-07
    12 OT SD       0.80E-01   19.2     0.00000182     -1102.9066326134 -9.38E-08
    13 OT DIIS     0.80E-01   19.5     0.00000225     -1102.9066326918 -7.83E-08
    14 OT DIIS     0.80E-01   19.5     0.00000186     -1102.9066327841 -9.24E-08
    15 OT DIIS     0.80E-01   19.0     0.00000167     -1102.9066330267 -2.43E-07
    16 OT DIIS     0.80E-01   19.1     0.00000162     -1102.9066335335 -5.07E-07
    17 OT DIIS     0.80E-01   19.4     0.00000160     -1102.9066337931 -2.60E-07
    18 OT DIIS     0.80E-01   19.1     0.00000158     -1102.9066339169 -1.24E-07
    19 OT DIIS     0.80E-01   19.5     0.00000156     -1102.9066341804 -2.64E-07
    20 OT DIIS     0.80E-01   19.1     0.00000156     -1102.9066343614 -1.81E-07
    21 OT DIIS     0.80E-01   19.1     0.00000155     -1102.9066345736 -2.12E-07
    22 OT DIIS     0.80E-01   19.5     0.00000156     -1102.9066347826 -2.09E-07
    23 OT DIIS     0.80E-01   19.2     0.00000155     -1102.9066348468 -6.42E-08
    24 OT DIIS     0.80E-01   19.0     0.00000152     -1102.9066350498 -2.03E-07
    25 OT DIIS     0.80E-01   19.3     0.00000152     -1102.9066352680 -2.18E-07
    26 OT DIIS     0.80E-01   19.5     0.00000152     -1102.9066354685 -2.00E-07
    27 OT DIIS     0.80E-01   19.2     0.00000151     -1102.9066358704 -4.02E-07
    28 OT DIIS     0.80E-01   19.2     0.00000150     -1102.9066361734 -3.03E-07
    29 OT DIIS     0.80E-01   19.2     0.00000150     -1102.9066365187 -3.45E-07
    30 OT DIIS     0.80E-01   19.3     0.00000150     -1102.9066367362 -2.17E-07

  Leaving inner SCF loop after reaching    30 steps.


  Electronic density on regular grids:       -511.9999999888        0.0000000112
  Core density on regular grids:              512.9999999831       -0.0000000169
  Total charge density on r-space grids:        0.9999999943
  Total charge density g-space grids:           0.9999999943

  Overlap energy of the core charge distribution:               0.00008754002629
  Self energy of the core charge distribution:              -2839.62839375007934
  Core Hamiltonian energy:                                    829.96425123440338
  Hartree energy:                                            1178.90754448677671
  Exchange-correlation energy:                               -271.90239842500290
  Dispersion energy:                                           -0.24772782227592

  Total energy:                                             -1102.90663673615154

  outer SCF iter =    4 RMS gradient =   0.15E-05 energy =      -1102.9066367362

  ----------------------------------- OT ---------------------------------------
  Minimizer      : DIIS                : direct inversion
                                         in the iterative subspace
                                         using   7 DIIS vectors
                                         safer DIIS on
  Preconditioner : FULL_SINGLE_INVERSE : inversion of 
                                         H + eS - 2*(Sc)(c^T*H*c+const)(Sc)^T
  Precond_solver : DEFAULT
  stepsize       :    0.08000000                  energy_gap     :    0.08000000
  eps_taylor     :   0.10000E-15                  max_taylor     :             4
  ----------------------------------- OT ---------------------------------------

  Step     Update method      Time    Convergence         Total energy    Change
  ------------------------------------------------------------------------------
     1 OT DIIS     0.80E-01   67.0     0.00000151     -1102.9066369712 -2.35E-07
     2 OT DIIS     0.80E-01   16.6     0.00000168     -1102.9066370360 -6.48E-08
     3 OT DIIS     0.80E-01   16.2     0.00000149     -1102.9066370541 -1.81E-08
     4 OT DIIS     0.80E-01   16.6     0.00000148     -1102.9066370843 -3.02E-08
     5 OT DIIS     0.80E-01   17.0     0.00000148     -1102.9066374192 -3.35E-07
     6 OT DIIS     0.80E-01   18.8     0.00000147     -1102.9066378999 -4.81E-07
     7 OT DIIS     0.80E-01   18.8     0.00000147     -1102.9066381614 -2.61E-07
     8 OT DIIS     0.80E-01   19.1     0.00000146     -1102.9066383922 -2.31E-07
     9 OT DIIS     0.80E-01   19.2     0.00000146     -1102.9066388143 -4.22E-07
    10 OT DIIS     0.80E-01   19.5     0.00000146     -1102.9066394402 -6.26E-07
    11 OT DIIS     0.80E-01   19.1     0.00000148     -1102.9066404906 -1.05E-06
    12 OT DIIS     0.80E-01   18.9     0.00000146     -1102.9066407326 -2.42E-07
    13 OT SD       0.80E-01   19.3     0.00000145     -1102.9066407366 -4.00E-09
    14 OT DIIS     0.80E-01   19.4     0.00000145     -1102.9066407995 -6.29E-08
    15 OT DIIS     0.80E-01   19.2     0.00000153     -1102.9066421508 -1.35E-06
    16 OT DIIS     0.80E-01   19.4     0.00000144     -1102.9066433573 -1.21E-06
    17 OT DIIS     0.80E-01   19.5     0.00000134     -1102.9066452240 -1.87E-06
    18 OT SD       0.80E-01   19.1     0.00000229     -1102.9066466331 -1.41E-06
    19 OT SD       0.80E-01   20.3     0.00000261     -1102.9066466991 -6.60E-08
    20 OT SD       0.80E-01   18.9     0.00000666     -1102.9066466047  9.43E-08
    21 OT DIIS     0.80E-01   19.2     0.00002096     -1102.9066452567  1.35E-06
    22 OT SD       0.80E-01   19.1     0.00000177     -1102.9066474189 -2.16E-06
    23 OT DIIS     0.80E-01   18.8     0.00000212     -1102.9066474689 -5.00E-08
    24 OT DIIS     0.80E-01   19.1     0.00000106     -1102.9066478991 -4.30E-07
    25 OT DIIS     0.80E-01   18.8     0.00000112     -1102.9066482346 -3.36E-07
    26 OT DIIS     0.80E-01   19.4     0.00000096     -1102.9066484635 -2.29E-07

  *** SCF run converged in    26 steps ***


  Electronic density on regular grids:       -511.9999999889        0.0000000111
  Core density on regular grids:              512.9999999831       -0.0000000169
  Total charge density on r-space grids:        0.9999999942
  Total charge density g-space grids:           0.9999999942

  Overlap energy of the core charge distribution:               0.00008754002629
  Self energy of the core charge distribution:              -2839.62839375007934
  Core Hamiltonian energy:                                    829.96471904910084
  Hartree energy:                                            1178.90708761814062
  Exchange-correlation energy:                               -271.90242109846082
  Dispersion energy:                                           -0.24772782227592

  Total energy:                                             -1102.90664846354798

  outer SCF iter =    5 RMS gradient =   0.96E-06 energy =      -1102.9066484635
  outer SCF loop converged in   5 iterations or  146 steps

  
  Eigenvalues of the occupied subspace spin            1
 ---------------------------------------------
      -0.99190939     -0.90697569     -0.82942011     -0.82490896
      -0.82010222     -0.81901435     -0.81835231     -0.81462197
      -0.81342633     -0.80634956     -0.80449887     -0.80339707
      -0.80151432     -0.80081240     -0.80035200     -0.79940963
      -0.79877369     -0.79735531     -0.79454527     -0.79345220
      -0.79275636     -0.79057299     -0.78910396     -0.78814573
      -0.78787377     -0.78609479     -0.78501783     -0.78371425
      -0.78304473     -0.78118462     -0.78044582     -0.77899990
      -0.77720064     -0.77665715     -0.77475363     -0.77402481
      -0.77303008     -0.77140692     -0.77047144     -0.76999961
      -0.76883311     -0.76751598     -0.76736339     -0.76675063
      -0.76523723     -0.76464173     -0.76404869     -0.76301298
      -0.76143622     -0.76113015     -0.75982362     -0.75813907
      -0.75764790     -0.75665646     -0.75652858     -0.75148121
      -0.75040232     -0.74956669     -0.74741652     -0.74488950
      -0.74271324     -0.74136487     -0.73845693     -0.73283555
      -0.57316227     -0.45970195     -0.42506677     -0.39521156
      -0.38729446     -0.38550475     -0.37855644     -0.37552100
      -0.37135480     -0.36984937     -0.36720080     -0.36653646
      -0.36278269     -0.36118415     -0.36017301     -0.35920270
      -0.35843466     -0.35755731     -0.35648241     -0.35385684
      -0.35309724     -0.35134043     -0.34989222     -0.34716728
      -0.34591266     -0.34482070     -0.34448750     -0.34204463
      -0.34094836     -0.33914766     -0.33765852     -0.33747288
      -0.33731928     -0.33642763     -0.33630582     -0.33464577
      -0.33387115     -0.33357816     -0.33211263     -0.33069296
      -0.33005788     -0.32851734     -0.32691216     -0.32596821
      -0.32425222     -0.32387442     -0.32334444     -0.32317506
      -0.32255763     -0.32201508     -0.32111121     -0.32064045
      -0.31965441     -0.31879367     -0.31826104     -0.31751491
      -0.31549219     -0.31164220     -0.30868269     -0.30796430
      -0.30700372     -0.30531526     -0.29931727     -0.29497554
      -0.29040280     -0.28798747     -0.28640861     -0.28094242
      -0.27616861     -0.25976217     -0.25684403     -0.25414591
      -0.25224839     -0.24921498     -0.24663300     -0.24115881
      -0.24039432     -0.23973058     -0.23797167     -0.23550084
      -0.23475159     -0.23331598     -0.23096880     -0.22967945
      -0.22720844     -0.22454650     -0.22277658     -0.22146200
      -0.22064973     -0.21975881     -0.21930037     -0.21780042
      -0.21583957     -0.21273903     -0.21025173     -0.20917330
      -0.20810301     -0.20581179     -0.20546851     -0.20327912
      -0.20095976     -0.19922319     -0.19775915     -0.19632009
      -0.19535057     -0.19448444     -0.19356204     -0.19245942
      -0.19130853     -0.19030859     -0.18943417     -0.18724476
      -0.18664593     -0.18403716     -0.18280612     -0.18252064
      -0.18085216     -0.17725935     -0.17668040     -0.17473205
      -0.17434185     -0.17274517     -0.17113053     -0.17082030
      -0.16955946     -0.16843528     -0.16693587     -0.16480916
      -0.16377406     -0.16241765     -0.15991772     -0.15935402
      -0.15567543     -0.15451242     -0.15309768     -0.15144818
      -0.15048137     -0.14839370     -0.14567833     -0.14351384
      -0.14326987     -0.14112714     -0.14034535     -0.13949054
      -0.13610706     -0.13587583     -0.13476520     -0.13412865
      -0.13352468     -0.13282619     -0.13161341     -0.13117670
      -0.13003197     -0.12928440     -0.12753436     -0.12678483
      -0.12563211     -0.12510144     -0.12417004     -0.12309871
      -0.12231243     -0.12125549     -0.12084575     -0.12042448
      -0.12028737     -0.11864902     -0.11770814     -0.11717351
      -0.11672949     -0.11568035     -0.11449357     -0.11359194
      -0.11339263     -0.11294012     -0.11163051     -0.11124352
      -0.11095540     -0.11009312     -0.10986715     -0.10899233
      -0.10805902     -0.10766981     -0.10617503     -0.10504307
      -0.10455264     -0.10247033     -0.09988108     -0.09916351
      -0.09741347     -0.09725308     -0.09701480     -0.09549683
 Fermi Energy [eV] :   -2.598601
  
  Lowest Eigenvalues of the unoccupied subspace spin            1
 -----------------------------------------------------
  Reached convergence in          101  iterations 
      -0.09699493      0.07598841      0.11482918      0.12008747
  
 HOMO - LUMO gap [eV] :   -0.040765

 ENERGY| Total FORCE_EVAL ( QS ) energy [a.u.]:            -1102.906648693349780

 MD_INI| MD initialization
 MD_INI| Potential energy [hartree]                          -0.110290664869E+04
 MD_INI| Kinetic energy [hartree]                             0.275037912564E+00
 MD_INI| Temperature [K]                                              300.000000
 MD_INI| Cell volume [bohr^3]                                 1.292889458088E+04
 MD_INI| Cell volume [ang^3]                                  1.915864488000E+03
 MD_INI| Cell lengths [bohr]      2.34703986E+01  2.34703986E+01  2.34703986E+01
 MD_INI| Cell lengths [ang]       1.24200000E+01  1.24200000E+01  1.24200000E+01
 MD_INI| Cell angles [deg]        9.00000000E+01  9.00000000E+01  9.00000000E+01

 Number of electrons:                                                        512
 Number of occupied orbitals:                                                256
 Number of molecular orbitals:                                               256

 Number of orbital functions:                                               1477
 Number of independent orbital functions:                                   1477

 Extrapolation method: ASPC


 SCF WAVEFUNCTION OPTIMIZATION

  ----------------------------------- OT ---------------------------------------
  Minimizer      : DIIS                : direct inversion
                                         in the iterative subspace
                                         using   7 DIIS vectors
                                         safer DIIS on
  Preconditioner : FULL_SINGLE_INVERSE : inversion of 
                                         H + eS - 2*(Sc)(c^T*H*c+const)(Sc)^T
  Precond_solver : DEFAULT
  stepsize       :    0.08000000                  energy_gap     :    0.08000000
  eps_taylor     :   0.10000E-15                  max_taylor     :             4
  ----------------------------------- OT ---------------------------------------

  Step     Update method      Time    Convergence         Total energy    Change
  ------------------------------------------------------------------------------
     1 OT DIIS     0.80E-01   45.2     0.00039440     -1102.9283257699 -1.10E+03
     2 OT DIIS     0.80E-01   19.1     0.00053607     -1102.9303895644 -2.06E-03
     3 OT DIIS     0.80E-01   19.1     0.00033271     -1102.9314693245 -1.08E-03
     4 OT DIIS     0.80E-01   19.1     0.00029478     -1102.9322428808 -7.74E-04
     5 OT DIIS     0.80E-01   18.9     0.00007839     -1102.9328785168 -6.36E-04
     6 OT DIIS     0.80E-01   19.3     0.00006101     -1102.9329657876 -8.73E-05
     7 OT DIIS     0.80E-01   19.0     0.00003012     -1102.9329959952 -3.02E-05
     8 OT DIIS     0.80E-01   18.8     0.00002846     -1102.9330080396 -1.20E-05
     9 OT DIIS     0.80E-01   19.5     0.00001306     -1102.9330127145 -4.67E-06
    10 OT DIIS     0.80E-01   19.4     0.00000824     -1102.9330164249 -3.71E-06
    11 OT DIIS     0.80E-01   19.3     0.00001072     -1102.9330172709 -8.46E-07
    12 OT DIIS     0.80E-01   19.6     0.00000712     -1102.9330185111 -1.24E-06
    13 OT DIIS     0.80E-01   19.0     0.00000624     -1102.9330192767 -7.66E-07
    14 OT DIIS     0.80E-01   19.7     0.00000552     -1102.9330209127 -1.64E-06
    15 OT DIIS     0.80E-01   19.0     0.00000519     -1102.9330221394 -1.23E-06
    16 OT DIIS     0.80E-01   19.3     0.00000458     -1102.9330240261 -1.89E-06
    17 OT DIIS     0.80E-01   19.3     0.00000419     -1102.9330251775 -1.15E-06
    18 OT DIIS     0.80E-01   18.7     0.00000319     -1102.9330265465 -1.37E-06
    19 OT DIIS     0.80E-01   19.6     0.00000366     -1102.9330274482 -9.02E-07
    20 OT DIIS     0.80E-01   19.4     0.00000342     -1102.9330279809 -5.33E-07
    21 OT DIIS     0.80E-01   19.2     0.00000242     -1102.9330283316 -3.51E-07
    22 OT DIIS     0.80E-01   19.3     0.00000213     -1102.9330285869 -2.55E-07
    23 OT DIIS     0.80E-01   19.4     0.00000182     -1102.9330287804 -1.94E-07
    24 OT DIIS     0.80E-01   19.3     0.00000175     -1102.9330289195 -1.39E-07
    25 OT DIIS     0.80E-01   19.3     0.00000162     -1102.9330290841 -1.65E-07
    26 OT DIIS     0.80E-01   19.1     0.00000155     -1102.9330291795 -9.55E-08
    27 OT DIIS     0.80E-01   19.6     0.00000149     -1102.9330293489 -1.69E-07
    28 OT DIIS     0.80E-01   19.1     0.00000154     -1102.9330294112 -6.23E-08
    29 OT DIIS     0.80E-01   19.4     0.00000138     -1102.9330295246 -1.13E-07
    30 OT DIIS     0.80E-01   19.7     0.00000129     -1102.9330296120 -8.74E-08

  Leaving inner SCF loop after reaching    30 steps.


  Electronic density on regular grids:       -511.9999999887        0.0000000113
  Core density on regular grids:              512.9999999831       -0.0000000169
  Total charge density on r-space grids:        0.9999999944
  Total charge density g-space grids:           0.9999999944

  Overlap energy of the core charge distribution:               0.00002517609505
  Self energy of the core charge distribution:              -2839.62839375007934
  Core Hamiltonian energy:                                    829.69874877073130
  Hartree energy:                                            1179.07024852968493
  Exchange-correlation energy:                               -271.82595614558966
  Dispersion energy:                                           -0.24770219287034

  Total energy:                                             -1102.93302961202789

  outer SCF iter =    1 RMS gradient =   0.13E-05 energy =      -1102.9330296120

  ----------------------------------- OT ---------------------------------------
  Minimizer      : DIIS                : direct inversion
                                         in the iterative subspace
                                         using   7 DIIS vectors
                                         safer DIIS on
  Preconditioner : FULL_SINGLE_INVERSE : inversion of 
                                         H + eS - 2*(Sc)(c^T*H*c+const)(Sc)^T
  Precond_solver : DEFAULT
  stepsize       :    0.08000000                  energy_gap     :    0.08000000
  eps_taylor     :   0.10000E-15                  max_taylor     :             4
  ----------------------------------- OT ---------------------------------------

  Step     Update method      Time    Convergence         Total energy    Change
  ------------------------------------------------------------------------------
     1 OT DIIS     0.80E-01   68.1     0.00000124     -1102.9330297177 -1.06E-07
     2 OT DIIS     0.80E-01   16.7     0.00000149     -1102.9330297545 -3.68E-08
     3 OT DIIS     0.80E-01   16.1     0.00000113     -1102.9330297710 -1.65E-08
     4 OT DIIS     0.80E-01   16.4     0.00000117     -1102.9330298298 -5.88E-08
     5 OT DIIS     0.80E-01   16.4     0.00000100     -1102.9330301304 -3.01E-07

  *** SCF run converged in     5 steps ***


  Electronic density on regular grids:       -511.9999999887        0.0000000113
  Core density on regular grids:              512.9999999831       -0.0000000169
  Total charge density on r-space grids:        0.9999999944
  Total charge density g-space grids:           0.9999999944

  Overlap energy of the core charge distribution:               0.00002517609505
  Self energy of the core charge distribution:              -2839.62839375007934
  Core Hamiltonian energy:                                    829.69886006313141
  Hartree energy:                                            1179.07014165699275
  Exchange-correlation energy:                               -271.82596108368341
  Dispersion energy:                                           -0.24770219287034

  Total energy:                                             -1102.93303013041350

  outer SCF iter =    2 RMS gradient =   0.10E-05 energy =      -1102.9330301304
  outer SCF loop converged in   2 iterations or   35 steps


 ENERGY| Total FORCE_EVAL ( QS ) energy [a.u.]:            -1102.933030172589497

 MD| ***************************************************************************
 MD| Step number                                                               1
 MD| Time [fs]                                                          0.500000
 MD| Conserved quantity [hartree]                            -0.110263395564E+04
 MD| ---------------------------------------------------------------------------
 MD|                                          Instantaneous             Averages
 MD| CPU time per MD step [s]                   5441.460169          5441.460169
 MD| Energy drift per atom [K]          -0.383651374044E+01   0.000000000000E+00
 MD| Potential energy [hartree]         -0.110293303017E+04  -0.110293303017E+04
 MD| Kinetic energy [hartree]            0.298855825101E+00   0.298855825101E+00
 MD| Temperature [K]                             325.979596           325.979596
 MD| ***************************************************************************

 Number of electrons:                                                        512
 Number of occupied orbitals:                                                256
 Number of molecular orbitals:                                               256

 Number of orbital functions:                                               1477
 Number of independent orbital functions:                                   1477

 Extrapolation method: ASPC


 SCF WAVEFUNCTION OPTIMIZATION

  ----------------------------------- OT ---------------------------------------
  Minimizer      : DIIS                : direct inversion
                                         in the iterative subspace
                                         using   7 DIIS vectors
                                         safer DIIS on
  Preconditioner : FULL_SINGLE_INVERSE : inversion of 
                                         H + eS - 2*(Sc)(c^T*H*c+const)(Sc)^T
  Precond_solver : DEFAULT
  stepsize       :    0.08000000                  energy_gap     :    0.08000000
  eps_taylor     :   0.10000E-15                  max_taylor     :             4
  ----------------------------------- OT ---------------------------------------

  Step     Update method      Time    Convergence         Total energy    Change
  ------------------------------------------------------------------------------
     1 OT DIIS     0.80E-01   39.8     0.00030009     -1102.9794093394 -1.10E+03
     2 OT DIIS     0.80E-01   18.9     0.00047999     -1102.9799742026 -5.65E-04
     3 OT DIIS     0.80E-01   19.3     0.00022044     -1102.9808538647 -8.80E-04
     4 OT DIIS     0.80E-01   18.9     0.00018905     -1102.9811056370 -2.52E-04
     5 OT DIIS     0.80E-01   18.8     0.00005457     -1102.9813930370 -2.87E-04
     6 OT DIIS     0.80E-01   19.2     0.00003231     -1102.9814475549 -5.45E-05
     7 OT DIIS     0.80E-01   19.4     0.00002290     -1102.9814592241 -1.17E-05
     8 OT DIIS     0.80E-01   19.0     0.00001381     -1102.9814681489 -8.92E-06
     9 OT DIIS     0.80E-01   19.4     0.00001610     -1102.9814693380 -1.19E-06
    10 OT DIIS     0.80E-01   19.5     0.00000739     -1102.9814726359 -3.30E-06
    11 OT DIIS     0.80E-01   19.2     0.00000959     -1102.9814736858 -1.05E-06
    12 OT DIIS     0.80E-01   19.3     0.00000671     -1102.9814751217 -1.44E-06
    13 OT DIIS     0.80E-01   18.7     0.00000588     -1102.9814760221 -9.00E-07
    14 OT DIIS     0.80E-01   19.1     0.00000466     -1102.9814776160 -1.59E-06
    15 OT DIIS     0.80E-01   19.2     0.00000453     -1102.9814787312 -1.12E-06
    16 OT DIIS     0.80E-01   19.1     0.00000375     -1102.9814797436 -1.01E-06
    17 OT DIIS     0.80E-01   19.3     0.00000408     -1102.9814806111 -8.67E-07
    18 OT DIIS     0.80E-01   19.7     0.00000330     -1102.9814811279 -5.17E-07
    19 OT DIIS     0.80E-01   19.5     0.00000342     -1102.9814818074 -6.80E-07
    20 OT DIIS     0.80E-01   19.2     0.00000333     -1102.9814823565 -5.49E-07
    21 OT DIIS     0.80E-01   19.7     0.00000287     -1102.9814828672 -5.11E-07
    22 OT DIIS     0.80E-01   19.5     0.00000271     -1102.9814835226 -6.55E-07
    23 OT DIIS     0.80E-01   19.0     0.00000243     -1102.9814842509 -7.28E-07
    24 OT DIIS     0.80E-01   19.1     0.00000232     -1102.9814848354 -5.84E-07
    25 OT DIIS     0.80E-01   19.2     0.00000209     -1102.9814856602 -8.25E-07
    26 OT DIIS     0.80E-01   19.2     0.00000212     -1102.9814858917 -2.31E-07
    27 OT DIIS     0.80E-01   19.3     0.00000169     -1102.9814863438 -4.52E-07
    28 OT DIIS     0.80E-01   19.4     0.00000184     -1102.9814865213 -1.78E-07
    29 OT DIIS     0.80E-01   19.2     0.00000153     -1102.9814866947 -1.73E-07
    30 OT DIIS     0.80E-01   18.9     0.00000137     -1102.9814868073 -1.13E-07

  Leaving inner SCF loop after reaching    30 steps.


  Electronic density on regular grids:       -511.9999999889        0.0000000111
  Core density on regular grids:              512.9999999831       -0.0000000169
  Total charge density on r-space grids:        0.9999999942
  Total charge density g-space grids:           0.9999999942

  Overlap energy of the core charge distribution:               0.00000291780324
  Self energy of the core charge distribution:              -2839.62839375007934
  Core Hamiltonian energy:                                    829.13304339430067
  Hartree energy:                                            1179.42570092260257
  Exchange-correlation energy:                               -271.66416798865924
  Dispersion energy:                                           -0.24767230327681

  Total energy:                                             -1102.98148680730901

  outer SCF iter =    1 RMS gradient =   0.14E-05 energy =      -1102.9814868073

  ----------------------------------- OT ---------------------------------------
  Minimizer      : DIIS                : direct inversion
                                         in the iterative subspace
                                         using   7 DIIS vectors
                                         safer DIIS on
  Preconditioner : FULL_SINGLE_INVERSE : inversion of 
                                         H + eS - 2*(Sc)(c^T*H*c+const)(Sc)^T
  Precond_solver : DEFAULT
  stepsize       :    0.08000000                  energy_gap     :    0.08000000
  eps_taylor     :   0.10000E-15                  max_taylor     :             4
  ----------------------------------- OT ---------------------------------------

  Step     Update method      Time    Convergence         Total energy    Change
  ------------------------------------------------------------------------------
     1 OT DIIS     0.80E-01   60.6     0.00000129     -1102.9814869281 -1.21E-07
     2 OT DIIS     0.80E-01   16.4     0.00000161     -1102.9814869638 -3.57E-08
     3 OT DIIS     0.80E-01   16.0     0.00000113     -1102.9814869826 -1.88E-08
     4 OT DIIS     0.80E-01   17.2     0.00000119     -1102.9814870275 -4.49E-08
     5 OT DIIS     0.80E-01   19.0     0.00000104     -1102.9814872614 -2.34E-07
     6 OT DIIS     0.80E-01   18.8     0.00000088     -1102.9814873089 -4.75E-08

  *** SCF run converged in     6 steps ***


  Electronic density on regular grids:       -511.9999999888        0.0000000112
  Core density on regular grids:              512.9999999831       -0.0000000169
  Total charge density on r-space grids:        0.9999999943
  Total charge density g-space grids:           0.9999999943

  Overlap energy of the core charge distribution:               0.00000291780324
  Self energy of the core charge distribution:              -2839.62839375007934
  Core Hamiltonian energy:                                    829.13309019415988
  Hartree energy:                                            1179.42565974857462
  Exchange-correlation energy:                               -271.66417411607330
  Dispersion energy:                                           -0.24767230327681

  Total energy:                                             -1102.98148730889193

  outer SCF iter =    2 RMS gradient =   0.88E-06 energy =      -1102.9814873089
  outer SCF loop converged in   2 iterations or   36 steps


 ENERGY| Total FORCE_EVAL ( QS ) energy [a.u.]:            -1102.981487369335355

 MD| ***************************************************************************
 MD| Step number                                                               2
 MD| Time [fs]                                                          1.000000
 MD| Conserved quantity [hartree]                            -0.110263546828E+04
 MD| ---------------------------------------------------------------------------
 MD|                                          Instantaneous             Averages
 MD| CPU time per MD step [s]                    756.518695          3098.989432
 MD| Energy drift per atom [K]          -0.631139589891E+01  -0.315569794946E+01
 MD| Potential energy [hartree]         -0.110298148737E+04  -0.110295725877E+04
 MD| Kinetic energy [hartree]            0.329253631636E+00   0.314054728369E+00
 MD| Temperature [K]                             359.136268           342.557932
 MD| ***************************************************************************

 Number of electrons:                                                        512
 Number of occupied orbitals:                                                256
 Number of molecular orbitals:                                               256

 Number of orbital functions:                                               1477
 Number of independent orbital functions:                                   1477

 Extrapolation method: ASPC


 SCF WAVEFUNCTION OPTIMIZATION

  ----------------------------------- OT ---------------------------------------
  Minimizer      : DIIS                : direct inversion
                                         in the iterative subspace
                                         using   7 DIIS vectors
                                         safer DIIS on
  Preconditioner : FULL_SINGLE_INVERSE : inversion of 
                                         H + eS - 2*(Sc)(c^T*H*c+const)(Sc)^T
  Precond_solver : DEFAULT
  stepsize       :    0.08000000                  energy_gap     :    0.08000000
  eps_taylor     :   0.10000E-15                  max_taylor     :             4
  ----------------------------------- OT ---------------------------------------

  Step     Update method      Time    Convergence         Total energy    Change
  ------------------------------------------------------------------------------
     1 OT DIIS     0.80E-01   45.9     0.00023978     -1103.0251456211 -1.10E+03
     2 OT DIIS     0.80E-01   18.9     0.00035864     -1103.0257847808 -6.39E-04
     3 OT DIIS     0.80E-01   19.2     0.00018117     -1103.0262448693 -4.60E-04
     4 OT DIIS     0.80E-01   18.9     0.00010548     -1103.0265861727 -3.41E-04
     5 OT DIIS     0.80E-01   19.5     0.00006311     -1103.0266901829 -1.04E-04
     6 OT DIIS     0.80E-01   19.3     0.00003871     -1103.0267301552 -4.00E-05
     7 OT DIIS     0.80E-01   19.1     0.00002111     -1103.0267396567 -9.50E-06
     8 OT DIIS     0.80E-01   19.0     0.00000779     -1103.0267471633 -7.51E-06
     9 OT DIIS     0.80E-01   19.3     0.00000806     -1103.0267486150 -1.45E-06
    10 OT DIIS     0.80E-01   19.2     0.00000518     -1103.0267494280 -8.13E-07
    11 OT DIIS     0.80E-01   19.2     0.00000621     -1103.0267501339 -7.06E-07
    12 OT DIIS     0.80E-01   19.0     0.00000433     -1103.0267505920 -4.58E-07
    13 OT DIIS     0.80E-01   19.5     0.00000421     -1103.0267514122 -8.20E-07
    14 OT DIIS     0.80E-01   19.2     0.00000361     -1103.0267519096 -4.97E-07
    15 OT DIIS     0.80E-01   19.2     0.00000364     -1103.0267523729 -4.63E-07
    16 OT DIIS     0.80E-01   19.3     0.00000248     -1103.0267529303 -5.57E-07
    17 OT DIIS     0.80E-01   19.3     0.00000236     -1103.0267534045 -4.74E-07
    18 OT DIIS     0.80E-01   19.1     0.00000205     -1103.0267536986 -2.94E-07
    19 OT DIIS     0.80E-01   19.3     0.00000213     -1103.0267539294 -2.31E-07
    20 OT DIIS     0.80E-01   19.1     0.00000202     -1103.0267540673 -1.38E-07
    21 OT DIIS     0.80E-01   19.0     0.00000167     -1103.0267542171 -1.50E-07
    22 OT DIIS     0.80E-01   19.9     0.00000168     -1103.0267543513 -1.34E-07
    23 OT DIIS     0.80E-01   19.4     0.00000160     -1103.0267544816 -1.30E-07
    24 OT DIIS     0.80E-01   19.1     0.00000149     -1103.0267545877 -1.06E-07
    25 OT DIIS     0.80E-01   19.1     0.00000134     -1103.0267547976 -2.10E-07
    26 OT DIIS     0.80E-01   19.4     0.00000131     -1103.0267549563 -1.59E-07
    27 OT DIIS     0.80E-01   19.0     0.00000126     -1103.0267551141 -1.58E-07
    28 OT DIIS     0.80E-01   19.5     0.00000132     -1103.0267552203 -1.06E-07
    29 OT DIIS     0.80E-01   18.7     0.00000113     -1103.0267553527 -1.32E-07
    30 OT DIIS     0.80E-01   19.1     0.00000111     -1103.0267554652 -1.12E-07

  Leaving inner SCF loop after reaching    30 steps.


  Electronic density on regular grids:       -511.9999999887        0.0000000113
  Core density on regular grids:              512.9999999831       -0.0000000169
  Total charge density on r-space grids:        0.9999999945
  Total charge density g-space grids:           0.9999999945

  Overlap energy of the core charge distribution:               0.00000180479195
  Self energy of the core charge distribution:              -2839.62839375007934
  Core Hamiltonian energy:                                    828.39955801956216
  Hartree energy:                                            1179.90422159779519
  Exchange-correlation energy:                               -271.45422856870675
  Dispersion energy:                                           -0.24791456854726

  Total energy:                                             -1103.02675546518435

  outer SCF iter =    1 RMS gradient =   0.11E-05 energy =      -1103.0267554652

  ----------------------------------- OT ---------------------------------------
  Minimizer      : DIIS                : direct inversion
                                         in the iterative subspace
                                         using   7 DIIS vectors
                                         safer DIIS on
  Preconditioner : FULL_SINGLE_INVERSE : inversion of 
                                         H + eS - 2*(Sc)(c^T*H*c+const)(Sc)^T
  Precond_solver : DEFAULT
  stepsize       :    0.08000000                  energy_gap     :    0.08000000
  eps_taylor     :   0.10000E-15                  max_taylor     :             4
  ----------------------------------- OT ---------------------------------------

  Step     Update method      Time    Convergence         Total energy    Change
  ------------------------------------------------------------------------------
     1 OT DIIS     0.80E-01   62.1     0.00000108     -1103.0267555533 -8.81E-08
     2 OT DIIS     0.80E-01   16.1     0.00000187     -1103.0267555679 -1.45E-08
     3 OT DIIS     0.80E-01   16.3     0.00000086     -1103.0267555848 -1.69E-08

  *** SCF run converged in     3 steps ***


  Electronic density on regular grids:       -511.9999999887        0.0000000113
  Core density on regular grids:              512.9999999831       -0.0000000169
  Total charge density on r-space grids:        0.9999999945
  Total charge density g-space grids:           0.9999999945

  Overlap energy of the core charge distribution:               0.00000180479195
  Self energy of the core charge distribution:              -2839.62839375007934
  Core Hamiltonian energy:                                    828.39950951264859
  Hartree energy:                                            1179.90426027363219
  Exchange-correlation energy:                               -271.45421885721419
  Dispersion energy:                                           -0.24791456854726

  Total energy:                                             -1103.02675558476835

  outer SCF iter =    2 RMS gradient =   0.86E-06 energy =      -1103.0267555848
  outer SCF loop converged in   2 iterations or   33 steps


 ENERGY| Total FORCE_EVAL ( QS ) energy [a.u.]:            -1103.026755615500178

 MD| ***************************************************************************
 MD| Step number                                                               3
 MD| Time [fs]                                                          1.500000
 MD| Conserved quantity [hartree]                            -0.110263554979E+04
 MD| ---------------------------------------------------------------------------
 MD|                                          Instantaneous             Averages
 MD| CPU time per MD step [s]                    711.681597          2303.220154
 MD| Energy drift per atom [K]          -0.644476551181E+01  -0.425205380357E+01
 MD| Potential energy [hartree]         -0.110302675562E+04  -0.110298042439E+04
 MD| Kinetic energy [hartree]            0.363337992951E+00   0.330482483229E+00
 MD| Temperature [K]                             396.314082           360.476649
 MD| ***************************************************************************

 Number of electrons:                                                        512
 Number of occupied orbitals:                                                256
 Number of molecular orbitals:                                               256

 Number of orbital functions:                                               1477
 Number of independent orbital functions:                                   1477

 Extrapolation method: ASPC


 SCF WAVEFUNCTION OPTIMIZATION

  ----------------------------------- OT ---------------------------------------
  Minimizer      : DIIS                : direct inversion
                                         in the iterative subspace
                                         using   7 DIIS vectors
                                         safer DIIS on
  Preconditioner : FULL_SINGLE_INVERSE : inversion of 
                                         H + eS - 2*(Sc)(c^T*H*c+const)(Sc)^T
  Precond_solver : DEFAULT
  stepsize       :    0.08000000                  energy_gap     :    0.08000000
  eps_taylor     :   0.10000E-15                  max_taylor     :             4
  ----------------------------------- OT ---------------------------------------

  Step     Update method      Time    Convergence         Total energy    Change
  ------------------------------------------------------------------------------
     1 OT DIIS     0.80E-01   40.2     0.00020843     -1103.0553667461 -1.10E+03
     2 OT DIIS     0.80E-01   19.0     0.00012797     -1103.0563221854 -9.55E-04
     3 OT DIIS     0.80E-01   19.0     0.00016106     -1103.0566172954 -2.95E-04
     4 OT DIIS     0.80E-01   19.3     0.00008684     -1103.0568175274 -2.00E-04
     5 OT DIIS     0.80E-01   19.0     0.00006476     -1103.0568833343 -6.58E-05
     6 OT DIIS     0.80E-01   19.1     0.00002226     -1103.0569162315 -3.29E-05
     7 OT DIIS     0.80E-01   19.2     0.00002426     -1103.0569327698 -1.65E-05
     8 OT DIIS     0.80E-01   19.0     0.00001606     -1103.0569389350 -6.17E-06
     9 OT DIIS     0.80E-01   19.3     0.00001327     -1103.0569479375 -9.00E-06
    10 OT DIIS     0.80E-01   19.6     0.00001260     -1103.0569543007 -6.36E-06
    11 OT DIIS     0.80E-01   18.9     0.00001045     -1103.0569667811 -1.25E-05
    12 OT DIIS     0.80E-01   19.4     0.00001058     -1103.0569826679 -1.59E-05
    13 OT DIIS     0.80E-01   19.0     0.00000981     -1103.0569874583 -4.79E-06
    14 OT DIIS     0.80E-01   19.2     0.00000805     -1103.0569916800 -4.22E-06
    15 OT DIIS     0.80E-01   19.4     0.00000545     -1103.0569963435 -4.66E-06
    16 OT DIIS     0.80E-01   19.5     0.00000700     -1103.0569981414 -1.80E-06
    17 OT DIIS     0.80E-01   19.0     0.00000400     -1103.0569999373 -1.80E-06
    18 OT DIIS     0.80E-01   19.1     0.00000363     -1103.0570007603 -8.23E-07
    19 OT DIIS     0.80E-01   19.2     0.00000294     -1103.0570012902 -5.30E-07
    20 OT DIIS     0.80E-01   19.6     0.00000281     -1103.0570016677 -3.77E-07
    21 OT DIIS     0.80E-01   19.5     0.00000293     -1103.0570019892 -3.21E-07
    22 OT DIIS     0.80E-01   19.4     0.00000267     -1103.0570022305 -2.41E-07
    23 OT DIIS     0.80E-01   19.7     0.00000236     -1103.0570025164 -2.86E-07
    24 OT DIIS     0.80E-01   22.0     0.00000237     -1103.0570028637 -3.47E-07
    25 OT DIIS     0.80E-01   21.9     0.00000214     -1103.0570030529 -1.89E-07
    26 OT DIIS     0.80E-01   22.2     0.00000177     -1103.0570032551 -2.02E-07
    27 OT DIIS     0.80E-01   21.8     0.00000169     -1103.0570033974 -1.42E-07
    28 OT DIIS     0.80E-01   22.2     0.00000158     -1103.0570034991 -1.02E-07
    29 OT DIIS     0.80E-01   20.9     0.00000174     -1103.0570036126 -1.13E-07
    30 OT DIIS     0.80E-01   19.3     0.00000161     -1103.0570036855 -7.30E-08

  Leaving inner SCF loop after reaching    30 steps.


  Electronic density on regular grids:       -511.9999999910        0.0000000090
  Core density on regular grids:              512.9999999832       -0.0000000168
  Total charge density on r-space grids:        0.9999999922
  Total charge density g-space grids:           0.9999999922

  Overlap energy of the core charge distribution:               0.00000149013947
  Self energy of the core charge distribution:              -2839.62839375007934
  Core Hamiltonian energy:                                    827.62756445956052
  Hartree energy:                                            1180.42461612116222
  Exchange-correlation energy:                               -271.23233357374863
  Dispersion energy:                                           -0.24845843257119

  Total energy:                                             -1103.05700368553698

  outer SCF iter =    1 RMS gradient =   0.16E-05 energy =      -1103.0570036855

  ----------------------------------- OT ---------------------------------------
  Minimizer      : DIIS                : direct inversion
                                         in the iterative subspace
                                         using   7 DIIS vectors
                                         safer DIIS on
  Preconditioner : FULL_SINGLE_INVERSE : inversion of 
                                         H + eS - 2*(Sc)(c^T*H*c+const)(Sc)^T
  Precond_solver : DEFAULT
  stepsize       :    0.08000000                  energy_gap     :    0.08000000
  eps_taylor     :   0.10000E-15                  max_taylor     :             4
  ----------------------------------- OT ---------------------------------------

  Step     Update method      Time    Convergence         Total energy    Change
  ------------------------------------------------------------------------------
     1 OT DIIS     0.80E-01   61.3     0.00000142     -1103.0570037246 -3.90E-08
     2 OT DIIS     0.80E-01   16.5     0.00000190     -1103.0570037638 -3.93E-08
     3 OT DIIS     0.80E-01   16.1     0.00000123     -1103.0570037873 -2.35E-08
     4 OT DIIS     0.80E-01   16.8     0.00000124     -1103.0570038193 -3.21E-08
     5 OT DIIS     0.80E-01   19.8     0.00000076     -1103.0570042413 -4.22E-07

  *** SCF run converged in     5 steps ***


  Electronic density on regular grids:       -511.9999999886        0.0000000114
  Core density on regular grids:              512.9999999832       -0.0000000168
  Total charge density on r-space grids:        0.9999999946
  Total charge density g-space grids:           0.9999999946

  Overlap energy of the core charge distribution:               0.00000149013947
  Self energy of the core charge distribution:              -2839.62839375007934
  Core Hamiltonian energy:                                    827.62758004853833
  Hartree energy:                                            1180.42459273590885
  Exchange-correlation energy:                               -271.23232633324301
  Dispersion energy:                                           -0.24845843257119

  Total energy:                                             -1103.05700424130714

  outer SCF iter =    2 RMS gradient =   0.76E-06 energy =      -1103.0570042413
  outer SCF loop converged in   2 iterations or   35 steps


 ENERGY| Total FORCE_EVAL ( QS ) energy [a.u.]:            -1103.057004269827530

 MD| ***************************************************************************
 MD| Step number                                                               4
 MD| Time [fs]                                                          2.000000
 MD| Conserved quantity [hartree]                            -0.110263566655E+04
 MD| ---------------------------------------------------------------------------
 MD|                                          Instantaneous             Averages
 MD| CPU time per MD step [s]                    760.793727          1917.613547
 MD| Energy drift per atom [K]          -0.663580518993E+01  -0.484799165016E+01
 MD| Potential energy [hartree]         -0.110305700427E+04  -0.110299956936E+04
 MD| Kinetic energy [hartree]            0.370804229313E+00   0.340562919750E+00
 MD| Temperature [K]                             404.457945           371.471973
 MD| ***************************************************************************

 Number of electrons:                                                        512
 Number of occupied orbitals:                                                256
 Number of molecular orbitals:                                               256

 Number of orbital functions:                                               1477
 Number of independent orbital functions:                                   1477

 Extrapolation method: ASPC


 SCF WAVEFUNCTION OPTIMIZATION

  ----------------------------------- OT ---------------------------------------
  Minimizer      : DIIS                : direct inversion
                                         in the iterative subspace
                                         using   7 DIIS vectors
                                         safer DIIS on
  Preconditioner : FULL_SINGLE_INVERSE : inversion of 
                                         H + eS - 2*(Sc)(c^T*H*c+const)(Sc)^T
  Precond_solver : DEFAULT
  stepsize       :    0.08000000                  energy_gap     :    0.08000000
  eps_taylor     :   0.10000E-15                  max_taylor     :             4
  ----------------------------------- OT ---------------------------------------

  Step     Update method      Time    Convergence         Total energy    Change
  ------------------------------------------------------------------------------
     1 OT DIIS     0.80E-01   39.7     0.00026456     -1103.0740758590 -1.10E+03
     2 OT DIIS     0.80E-01   19.2     0.00020005     -1103.0755178496 -1.44E-03
     3 OT DIIS     0.80E-01   19.1     0.00029901     -1103.0756995742 -1.82E-04
     4 OT DIIS     0.80E-01   19.0     0.00007400     -1103.0763091449 -6.10E-04
     5 OT DIIS     0.80E-01   19.2     0.00006043     -1103.0764431235 -1.34E-04
     6 OT DIIS     0.80E-01   19.3     0.00004341     -1103.0764732703 -3.01E-05
     7 OT DIIS     0.80E-01   19.1     0.00003253     -1103.0765038094 -3.05E-05
     8 OT DIIS     0.80E-01   19.3     0.00002100     -1103.0765241835 -2.04E-05
     9 OT DIIS     0.80E-01   19.0     0.00001703     -1103.0765455353 -2.14E-05
    10 OT DIIS     0.80E-01   19.4     0.00001598     -1103.0765630066 -1.75E-05
    11 OT DIIS     0.80E-01   19.1     0.00001227     -1103.0765795642 -1.66E-05
    12 OT DIIS     0.80E-01   19.2     0.00000911     -1103.0765951812 -1.56E-05
    13 OT DIIS     0.80E-01   18.9     0.00001030     -1103.0765979384 -2.76E-06
    14 OT DIIS     0.80E-01   19.1     0.00000666     -1103.0766006186 -2.68E-06
    15 OT DIIS     0.80E-01   19.6     0.00000619     -1103.0766017171 -1.10E-06
    16 OT DIIS     0.80E-01   19.2     0.00000481     -1103.0766027525 -1.04E-06
    17 OT DIIS     0.80E-01   19.4     0.00000350     -1103.0766033921 -6.40E-07
    18 OT DIIS     0.80E-01   19.4     0.00000323     -1103.0766040148 -6.23E-07
    19 OT DIIS     0.80E-01   19.0     0.00000310     -1103.0766043846 -3.70E-07
    20 OT DIIS     0.80E-01   19.2     0.00000280     -1103.0766048697 -4.85E-07
    21 OT DIIS     0.80E-01   19.3     0.00000301     -1103.0766054843 -6.15E-07
    22 OT DIIS     0.80E-01   19.4     0.00000276     -1103.0766057728 -2.88E-07
    23 OT DIIS     0.80E-01   19.2     0.00000245     -1103.0766061828 -4.10E-07
    24 OT DIIS     0.80E-01   19.2     0.00000228     -1103.0766064936 -3.11E-07
    25 OT DIIS     0.80E-01   19.2     0.00000192     -1103.0766067864 -2.93E-07
    26 OT DIIS     0.80E-01   19.0     0.00000185     -1103.0766070581 -2.72E-07
    27 OT DIIS     0.80E-01   19.4     0.00000173     -1103.0766072888 -2.31E-07
    28 OT DIIS     0.80E-01   19.1     0.00000168     -1103.0766074584 -1.70E-07
    29 OT DIIS     0.80E-01   19.3     0.00000164     -1103.0766076794 -2.21E-07
    30 OT DIIS     0.80E-01   19.5     0.00000166     -1103.0766077607 -8.13E-08

  Leaving inner SCF loop after reaching    30 steps.


  Electronic density on regular grids:       -511.9999999927        0.0000000073
  Core density on regular grids:              512.9999999832       -0.0000000168
  Total charge density on r-space grids:        0.9999999904
  Total charge density g-space grids:           0.9999999904

  Overlap energy of the core charge distribution:               0.00000125008026
  Self energy of the core charge distribution:              -2839.62839375007934
  Core Hamiltonian energy:                                    826.87930083476510
  Hartree energy:                                            1180.93768344029559
  Exchange-correlation energy:                               -271.01675203470108
  Dispersion energy:                                           -0.24844750109855

  Total energy:                                             -1103.07660776073772

  outer SCF iter =    1 RMS gradient =   0.17E-05 energy =      -1103.0766077607

  ----------------------------------- OT ---------------------------------------
  Minimizer      : DIIS                : direct inversion
                                         in the iterative subspace
                                         using   7 DIIS vectors
                                         safer DIIS on
  Preconditioner : FULL_SINGLE_INVERSE : inversion of 
                                         H + eS - 2*(Sc)(c^T*H*c+const)(Sc)^T
  Precond_solver : DEFAULT
  stepsize       :    0.08000000                  energy_gap     :    0.08000000
  eps_taylor     :   0.10000E-15                  max_taylor     :             4
  ----------------------------------- OT ---------------------------------------

  Step     Update method      Time    Convergence         Total energy    Change
  ------------------------------------------------------------------------------
     1 OT DIIS     0.80E-01   62.6     0.00000153     -1103.0766079304 -1.70E-07
     2 OT DIIS     0.80E-01   16.2     0.00000244     -1103.0766079699 -3.95E-08
     3 OT DIIS     0.80E-01   16.3     0.00000130     -1103.0766079995 -2.96E-08
     4 OT DIIS     0.80E-01   16.3     0.00000131     -1103.0766080560 -5.65E-08
     5 OT DIIS     0.80E-01   16.6     0.00000120     -1103.0766084378 -3.82E-07
     6 OT DIIS     0.80E-01   16.2     0.00000088     -1103.0766085550 -1.17E-07

  *** SCF run converged in     6 steps ***


  Electronic density on regular grids:       -511.9999999885        0.0000000115
  Core density on regular grids:              512.9999999832       -0.0000000168
  Total charge density on r-space grids:        0.9999999947
  Total charge density g-space grids:           0.9999999947

  Overlap energy of the core charge distribution:               0.00000125008026
  Self energy of the core charge distribution:              -2839.62839375007934
  Core Hamiltonian energy:                                    826.87928385123587
  Hartree energy:                                            1180.93769851239404
  Exchange-correlation energy:                               -271.01675091749399
  Dispersion energy:                                           -0.24844750109855

  Total energy:                                             -1103.07660855496147

  outer SCF iter =    2 RMS gradient =   0.88E-06 energy =      -1103.0766085550
  outer SCF loop converged in   2 iterations or   36 steps


 ENERGY| Total FORCE_EVAL ( QS ) energy [a.u.]:            -1103.076608604271996

 MD| ***************************************************************************
 MD| Step number                                                               5
 MD| Time [fs]                                                          2.500000
 MD| Conserved quantity [hartree]                            -0.110263570420E+04
 MD| ---------------------------------------------------------------------------
 MD|                                          Instantaneous             Averages
 MD| CPU time per MD step [s]                    759.898630          1686.070564
 MD| Energy drift per atom [K]          -0.669739397534E+01  -0.521787211520E+01
 MD| Potential energy [hartree]         -0.110307660860E+04  -0.110301497721E+04
 MD| Kinetic energy [hartree]            0.391114438865E+00   0.350673223573E+00
 MD| Temperature [K]                             426.611483           382.499875
 MD| ***************************************************************************

 Number of electrons:                                                        512
 Number of occupied orbitals:                                                256
[...]
     8 OT DIIS     0.80E-01   18.7     0.00000066     -1103.1302693057 -6.89E-08

  *** SCF run converged in     8 steps ***


  Electronic density on regular grids:       -511.9999999887        0.0000000113
  Core density on regular grids:              512.9999999832       -0.0000000168
  Total charge density on r-space grids:        0.9999999944
  Total charge density g-space grids:           0.9999999944

  Overlap energy of the core charge distribution:               0.00000183729434
  Self energy of the core charge distribution:              -2839.62839375007934
  Core Hamiltonian energy:                                    827.55498156091949
  Hartree energy:                                            1180.43612903835310
  Exchange-correlation energy:                               -271.24473529860336
  Dispersion energy:                                           -0.24825269357737

  Total energy:                                             -1103.13026930569322

  outer SCF iter =    1 RMS gradient =   0.66E-06 energy =      -1103.1302693057
  outer SCF loop converged in   1 iterations or    8 steps


 ENERGY| Total FORCE_EVAL ( QS ) energy [a.u.]:            -1103.130269319078252

 MD| ***************************************************************************
 MD| Step number                                                              41
 MD| Time [fs]                                                         20.500000
 MD| Conserved quantity [hartree]                            -0.110263547218E+04
 MD| ---------------------------------------------------------------------------
 MD|                                          Instantaneous             Averages
 MD| CPU time per MD step [s]                    205.037577           505.756403
 MD| Energy drift per atom [K]          -0.631777695890E+01  -0.562978180951E+01
 MD| Potential energy [hartree]         -0.110313026932E+04  -0.110308192565E+04
 MD| Kinetic energy [hartree]            0.317493144368E+00   0.332686866989E+00
 MD| Temperature [K]                             346.308414           362.881099
 MD| ***************************************************************************

 Number of electrons:                                                        512
 Number of occupied orbitals:                                                256
 Number of molecular orbitals:                                               256

 Number of orbital functions:                                               1477
 Number of independent orbital functions:                                   1477

 Extrapolation method: ASPC


 SCF WAVEFUNCTION OPTIMIZATION

  ----------------------------------- OT ---------------------------------------
  Minimizer      : DIIS                : direct inversion
                                         in the iterative subspace
                                         using   7 DIIS vectors
                                         safer DIIS on
  Preconditioner : FULL_SINGLE_INVERSE : inversion of 
                                         H + eS - 2*(Sc)(c^T*H*c+const)(Sc)^T
  Precond_solver : DEFAULT
  stepsize       :    0.08000000                  energy_gap     :    0.08000000
  eps_taylor     :   0.10000E-15                  max_taylor     :             4
  ----------------------------------- OT ---------------------------------------

  Step     Update method      Time    Convergence         Total energy    Change
  ------------------------------------------------------------------------------
     1 OT DIIS     0.80E-01   38.5     0.00022546     -1103.1329249736 -1.10E+03
     2 OT DIIS     0.80E-01   18.2     0.00012591     -1103.1340789406 -1.15E-03
     3 OT DIIS     0.80E-01   18.3     0.00005544     -1103.1345909168 -5.12E-04
     4 OT DIIS     0.80E-01   18.4     0.00002302     -1103.1346858091 -9.49E-05
     5 OT DIIS     0.80E-01   18.2     0.00001202     -1103.1347007698 -1.50E-05
     6 OT DIIS     0.80E-01   18.7     0.00000372     -1103.1347044888 -3.72E-06
     7 OT DIIS     0.80E-01   18.6     0.00000163     -1103.1347048685 -3.80E-07
     8 OT DIIS     0.80E-01   19.1     0.00000063     -1103.1347049501 -8.16E-08

  *** SCF run converged in     8 steps ***


  Electronic density on regular grids:       -511.9999999887        0.0000000113
  Core density on regular grids:              512.9999999832       -0.0000000168
  Total charge density on r-space grids:        0.9999999945
  Total charge density g-space grids:           0.9999999945

  Overlap energy of the core charge distribution:               0.00000167613390
  Self energy of the core charge distribution:              -2839.62839375007934
  Core Hamiltonian energy:                                    827.27854445823641
  Hartree energy:                                            1180.62699393485127
  Exchange-correlation energy:                               -271.16365862651219
  Dispersion energy:                                           -0.24819264274970

  Total energy:                                             -1103.13470495011984

  outer SCF iter =    1 RMS gradient =   0.63E-06 energy =      -1103.1347049501
  outer SCF loop converged in   1 iterations or    8 steps


 ENERGY| Total FORCE_EVAL ( QS ) energy [a.u.]:            -1103.134704963288868

 MD| ***************************************************************************
 MD| Step number                                                              42
 MD| Time [fs]                                                         21.000000
 MD| Conserved quantity [hartree]                            -0.110263560977E+04
 MD| ---------------------------------------------------------------------------
 MD|                                          Instantaneous             Averages
 MD| CPU time per MD step [s]                    204.312582           498.579169
 MD| Energy drift per atom [K]          -0.654289413986E+01  -0.565152257928E+01
 MD| Potential energy [hartree]         -0.110313470496E+04  -0.110308318230E+04
 MD| Kinetic energy [hartree]            0.309219499005E+00   0.332128120132E+00
 MD| Temperature [K]                             337.283863           362.271641
 MD| ***************************************************************************

 Number of electrons:                                                        512
 Number of occupied orbitals:                                                256
 Number of molecular orbitals:                                               256

 Number of orbital functions:                                               1477
 Number of independent orbital functions:                                   1477

 Extrapolation method: ASPC


 SCF WAVEFUNCTION OPTIMIZATION

  ----------------------------------- OT ---------------------------------------
  Minimizer      : DIIS                : direct inversion
                                         in the iterative subspace
                                         using   7 DIIS vectors
                                         safer DIIS on
  Preconditioner : FULL_SINGLE_INVERSE : inversion of 
                                         H + eS - 2*(Sc)(c^T*H*c+const)(Sc)^T
  Precond_solver : DEFAULT
  stepsize       :    0.08000000                  energy_gap     :    0.08000000
  eps_taylor     :   0.10000E-15                  max_taylor     :             4
  ----------------------------------- OT ---------------------------------------

  Step     Update method      Time    Convergence         Total energy    Change
  ------------------------------------------------------------------------------
     1 OT DIIS     0.80E-01   38.8     0.00022242     -1103.1347763903 -1.10E+03
     2 OT DIIS     0.80E-01   18.4     0.00012542     -1103.1359086738 -1.13E-03
     3 OT DIIS     0.80E-01   18.3     0.00005161     -1103.1364332261 -5.25E-04
     4 OT DIIS     0.80E-01   18.3     0.00002052     -1103.1365209957 -8.78E-05
     5 OT DIIS     0.80E-01   18.6     0.00001009     -1103.1365348331 -1.38E-05
     6 OT DIIS     0.80E-01   18.8     0.00000357     -1103.1365370784 -2.25E-06
     7 OT DIIS     0.80E-01   18.3     0.00000147     -1103.1365374276 -3.49E-07
     8 OT DIIS     0.80E-01   18.6     0.00000061     -1103.1365374914 -6.38E-08

  *** SCF run converged in     8 steps ***


  Electronic density on regular grids:       -511.9999999885        0.0000000115
  Core density on regular grids:              512.9999999832       -0.0000000168
  Total charge density on r-space grids:        0.9999999947
  Total charge density g-space grids:           0.9999999947

  Overlap energy of the core charge distribution:               0.00000158759857
  Self energy of the core charge distribution:              -2839.62839375007934
  Core Hamiltonian energy:                                    827.08689306117321
  Hartree energy:                                            1180.75925612967376
  Exchange-correlation energy:                               -271.10613549554711
  Dispersion energy:                                           -0.24815902426788

  Total energy:                                             -1103.13653749144873

  outer SCF iter =    1 RMS gradient =   0.61E-06 energy =      -1103.1365374914
  outer SCF loop converged in   1 iterations or    8 steps


 ENERGY| Total FORCE_EVAL ( QS ) energy [a.u.]:            -1103.136537503009095

 MD| ***************************************************************************
 MD| Step number                                                              43
 MD| Time [fs]                                                         21.500000
 MD| Conserved quantity [hartree]                            -0.110263565778E+04
 MD| ---------------------------------------------------------------------------
 MD|                                          Instantaneous             Averages
 MD| CPU time per MD step [s]                    204.828567           491.747759
 MD| Energy drift per atom [K]          -0.662145146336E+01  -0.567407906496E+01
 MD| Potential energy [hartree]         -0.110313653750E+04  -0.110308442312E+04
 MD| Kinetic energy [hartree]            0.309816309058E+00   0.331609240805E+00
 MD| Temperature [K]                             337.934839           361.705669
 MD| ***************************************************************************

 Number of electrons:                                                        512
 Number of occupied orbitals:                                                256
 Number of molecular orbitals:                                               256

 Number of orbital functions:                                               1477
 Number of independent orbital functions:                                   1477

 Extrapolation method: ASPC


 SCF WAVEFUNCTION OPTIMIZATION

  ----------------------------------- OT ---------------------------------------
  Minimizer      : DIIS                : direct inversion
                                         in the iterative subspace
                                         using   7 DIIS vectors
                                         safer DIIS on
  Preconditioner : FULL_SINGLE_INVERSE : inversion of 
                                         H + eS - 2*(Sc)(c^T*H*c+const)(Sc)^T
  Precond_solver : DEFAULT
  stepsize       :    0.08000000                  energy_gap     :    0.08000000
  eps_taylor     :   0.10000E-15                  max_taylor     :             4
  ----------------------------------- OT ---------------------------------------

  Step     Update method      Time    Convergence         Total energy    Change
  ------------------------------------------------------------------------------
     1 OT DIIS     0.80E-01   39.9     0.00022491     -1103.1354335647 -1.10E+03
     2 OT DIIS     0.80E-01   18.2     0.00012656     -1103.1365903530 -1.16E-03
     3 OT DIIS     0.80E-01   18.4     0.00005188     -1103.1371225886 -5.32E-04
     4 OT DIIS     0.80E-01   18.4     0.00002002     -1103.1372114368 -8.88E-05
     5 OT DIIS     0.80E-01   18.9     0.00000752     -1103.1372260721 -1.46E-05
     6 OT DIIS     0.80E-01   18.3     0.00000339     -1103.1372275316 -1.46E-06
     7 OT DIIS     0.80E-01   18.5     0.00000150     -1103.1372278114 -2.80E-07
     8 OT DIIS     0.80E-01   18.7     0.00000064     -1103.1372278665 -5.51E-08

  *** SCF run converged in     8 steps ***


  Electronic density on regular grids:       -511.9999999883        0.0000000117
  Core density on regular grids:              512.9999999831       -0.0000000169
  Total charge density on r-space grids:        0.9999999948
  Total charge density g-space grids:           0.9999999948

  Overlap energy of the core charge distribution:               0.00000149793867
  Self energy of the core charge distribution:              -2839.62839375007934
  Core Hamiltonian energy:                                    826.86594324610564
  Hartree energy:                                            1180.91393196657509
  Exchange-correlation energy:                               -271.04058165438425
  Dispersion energy:                                           -0.24812917265913

  Total energy:                                             -1103.13722786650328

  outer SCF iter =    1 RMS gradient =   0.64E-06 energy =      -1103.1372278665
  outer SCF loop converged in   1 iterations or    8 steps


 ENERGY| Total FORCE_EVAL ( QS ) energy [a.u.]:            -1103.137227878366275

 MD| ***************************************************************************
 MD| Step number                                                              44
 MD| Time [fs]                                                         22.000000
 MD| Conserved quantity [hartree]                            -0.110263569010E+04
 MD| ---------------------------------------------------------------------------
 MD|                                          Instantaneous             Averages
 MD| CPU time per MD step [s]                    205.512568           485.242414
 MD| Energy drift per atom [K]          -0.667432268444E+01  -0.569681187449E+01
 MD| Potential energy [hartree]         -0.110313722788E+04  -0.110308562323E+04
 MD| Kinetic energy [hartree]            0.307969831299E+00   0.331071981498E+00
 MD| Temperature [K]                             335.920777           361.119649
 MD| ***************************************************************************

 Number of electrons:                                                        512
 Number of occupied orbitals:                                                256
 Number of molecular orbitals:                                               256

 Number of orbital functions:                                               1477
 Number of independent orbital functions:                                   1477

 Extrapolation method: ASPC


 SCF WAVEFUNCTION OPTIMIZATION

  ----------------------------------- OT ---------------------------------------
  Minimizer      : DIIS                : direct inversion
                                         in the iterative subspace
                                         using   7 DIIS vectors
                                         safer DIIS on
  Preconditioner : FULL_SINGLE_INVERSE : inversion of 
                                         H + eS - 2*(Sc)(c^T*H*c+const)(Sc)^T
  Precond_solver : DEFAULT
  stepsize       :    0.08000000                  energy_gap     :    0.08000000
  eps_taylor     :   0.10000E-15                  max_taylor     :             4
  ----------------------------------- OT ---------------------------------------

  Step     Update method      Time    Convergence         Total energy    Change
  ------------------------------------------------------------------------------
     1 OT DIIS     0.80E-01   39.9     0.00021147     -1103.1353180571 -1.10E+03
     2 OT DIIS     0.80E-01   19.0     0.00012105     -1103.1363466490 -1.03E-03
     3 OT DIIS     0.80E-01   19.0     0.00005224     -1103.1368357888 -4.89E-04
     4 OT DIIS     0.80E-01   18.4     0.00002132     -1103.1369204697 -8.47E-05
     5 OT DIIS     0.80E-01   18.2     0.00001153     -1103.1369330900 -1.26E-05
     6 OT DIIS     0.80E-01   18.3     0.00000351     -1103.1369362931 -3.20E-06
     7 OT DIIS     0.80E-01   18.4     0.00000143     -1103.1369366628 -3.70E-07
     8 OT DIIS     0.80E-01   18.6     0.00000057     -1103.1369367263 -6.36E-08

  *** SCF run converged in     8 steps ***


  Electronic density on regular grids:       -511.9999999880        0.0000000120
  Core density on regular grids:              512.9999999831       -0.0000000169
  Total charge density on r-space grids:        0.9999999951
  Total charge density g-space grids:           0.9999999951

  Overlap energy of the core charge distribution:               0.00000141073400
  Self energy of the core charge distribution:              -2839.62839375007934
  Core Hamiltonian energy:                                    826.68803699127966
  Hartree energy:                                            1181.03884666210115
  Exchange-correlation energy:                               -270.98730392666084
  Dispersion energy:                                           -0.24812411372322

  Total energy:                                             -1103.13693672634849

  outer SCF iter =    1 RMS gradient =   0.57E-06 energy =      -1103.1369367263
  outer SCF loop converged in   1 iterations or    8 steps


 ENERGY| Total FORCE_EVAL ( QS ) energy [a.u.]:            -1103.136936737156475

 MD| ***************************************************************************
 MD| Step number                                                              45
 MD| Time [fs]                                                         22.500000
 MD| Conserved quantity [hartree]                            -0.110263574619E+04
 MD| ---------------------------------------------------------------------------
 MD|                                          Instantaneous             Averages
 MD| CPU time per MD step [s]                    206.655582           479.051596
 MD| Energy drift per atom [K]          -0.676610508276E+01  -0.572057394579E+01
 MD| Potential energy [hartree]         -0.110313693674E+04  -0.110308676353E+04
 MD| Kinetic energy [hartree]            0.297565674625E+00   0.330327396901E+00
 MD| Temperature [K]                             324.572353           360.307487
 MD| ***************************************************************************

 Number of electrons:                                                        512
 Number of occupied orbitals:                                                256
 Number of molecular orbitals:                                               256

 Number of orbital functions:                                               1477
 Number of independent orbital functions:                                   1477

 Extrapolation method: ASPC


 SCF WAVEFUNCTION OPTIMIZATION

  ----------------------------------- OT ---------------------------------------
  Minimizer      : DIIS                : direct inversion
                                         in the iterative subspace
                                         using   7 DIIS vectors
                                         safer DIIS on
  Preconditioner : FULL_SINGLE_INVERSE : inversion of 
                                         H + eS - 2*(Sc)(c^T*H*c+const)(Sc)^T
  Precond_solver : DEFAULT
  stepsize       :    0.08000000                  energy_gap     :    0.08000000
  eps_taylor     :   0.10000E-15                  max_taylor     :             4
  ----------------------------------- OT ---------------------------------------

  Step     Update method      Time    Convergence         Total energy    Change
  ------------------------------------------------------------------------------
