     193
 i =        0, time =        0.000, E =     -1102.9066486933
  O         3.8585873763       -4.7533175213        5.5091974759
  H         4.2109950951       -5.5568705259        5.9994585948
  H         3.0947084560       -4.3172663108        5.9135950646
  O        -3.5460761891        1.7456237131        4.2880212708
  H        -3.3572582677        0.8369944362        4.1529456220
  H        -3.6089143450        1.9436976972        5.2698392012
  O         4.5691359319        2.9343274990       -7.0999718127
  H         3.6785962350        3.2291072409       -6.8049831901
  H         4.4953665356        2.7845914189       -8.0458027314
  O        -2.5731801314       -0.1063102257       -3.4147140374
  H        -2.0386687011        0.4155234251       -2.8289645480
  H        -1.8891606976       -0.6148201666       -3.9280631618
  O        -3.7625034284       -7.7105940327        5.6279977389
  H        -4.6343536576       -7.4199803039        5.9874790347
  H        -3.8520633915       -7.6348492192        4.6607806353
  O        -6.7131259426       -0.0759204976        2.3176844292
  H        -6.0415850051       -0.4560400697        3.0079983076
  H        -6.2582643134        0.7343068494        1.9582947358
  O         4.0109535867       -5.5817692668       -0.4126912859
  H         3.3321311866       -5.6166906662        0.3076935926
  H         3.9051538355       -4.7533442556       -0.8369521875
  O        -2.6692626967       -3.0810510613       -1.2259349448
  H        -3.2486322997       -2.4491708867       -1.7386930105
  H        -2.1918958173       -2.5988518360       -0.5763067756
  O         5.4576244064       -3.1688044689        3.1002596795
  H         4.6854987571       -3.2457995297        3.6224179934
  H         5.2579372917       -3.0507495002        2.1311396222
  O         2.0078792352        3.8025888294       -6.6441198936
  H         1.3809036112        3.0702729257       -6.8038689306
  H         1.8366067800        4.0666291804       -5.7099975874
  O         4.0608830110       -3.8929207302       -3.0596772434
  H         3.2332712864       -3.7206669725       -3.6953758544
  H         4.3366899606       -2.9825098616       -2.9848217710
  O         1.9773593054       -1.8442291306        1.0225667179
  H         1.5650644885       -2.4713604568        1.6495937537
  H         1.6194813185       -1.9133123969        0.0656946095
  O         0.7338447631       -5.7432877136       -5.0100685957
  H         1.4795768454       -6.3299226862       -4.8189325814
  H         0.4491149358       -5.7095685669       -5.9473559749
  O        -7.5166459589       -8.6781062088       -3.2371569882
  H        -7.8737663294       -9.6027219294       -3.0814153209
  H        -7.1323941392       -8.5788960418       -2.3467663280
  O         3.0089956358       -1.6206934676        5.1704516391
  H         3.8547864750       -1.8022862145        5.6866350548
  H         3.1700832113       -0.8185381416        4.6102432456
  O        -0.0943492744        1.8634710749       -6.6861347029
  H         0.2389831969        1.0552334471       -6.3170377387
  H        -0.0534604238        1.7370469556       -7.6527831571
  O         1.3803001006       -3.0815472275        3.6598466091
  H         2.0052752091       -2.6793618758        4.3169228939
  H         1.0973942250       -3.9666380514        3.9813401483
  O        -2.3279129364        2.8060791527        2.2347417439
  H        -1.6230445751        2.1315230876        2.1866163236
  H        -2.7609234795        2.5819568350        3.0889511952
  O         0.8745131234       -0.6611187482       -5.6004046460
  H         1.7204015713       -0.8189656405       -6.1098612966
  H         1.1964117837       -0.2405057963       -4.7549061774
  O        -1.1866462102       -0.7164030048        0.2437849238
  H        -1.1340006348        0.2325710411       -0.0726156939
  H        -0.9335438317       -0.7854778370        1.2011335414
  O        -3.8861935106       -9.0129285534       -3.1318571683
  H        -4.4983492231       -8.2801255892       -3.2160220896
  H        -2.9183857578       -8.7301395642       -3.1224505015
  O         4.9784414381        4.5574106629        2.1605978288
  H         4.5742506248        4.0690251974        1.4375040342
  H         4.2106782789        4.9079438424        2.6736093641
  O         4.2074812608        1.0294752439       -3.2134938111
  H         4.6250866171        0.8524308220       -4.0648666086
  H         4.4221519308        0.1920392568       -2.7364360799
  O        -5.2106345443       -6.3463699492       -2.6806456410
  H        -5.3801630197       -6.0861826108       -1.7737611737
  H        -5.9985546753       -6.0894306119       -3.1521879087
  O         4.8272006144       -2.1493089974        0.6957555837
  H         5.1698114049       -1.3843105780        1.1680731517
  H         3.8731403616       -2.0152767607        0.7901517878
  O         2.1084974235        0.9406557281        1.6964699575
  H         2.7635704789        1.5106519967        1.2582480434
  H         2.3138417141        0.0791504768        1.2943222699
  O        -5.7579045611       -5.0935991816       -0.3613728277
  H        -6.6922016300       -5.4438912590       -0.2434456391
  H        -5.9339541154       -4.1852263482       -0.6893230982
  O        -4.8501183696        4.6347512586        2.6323657871
  H        -5.8186923573        4.7291496971        2.3648078237
  H        -4.7686962808        3.6685062675        2.2489112658
  O         5.5123889390        0.8523825517       -5.5927914459
  H         6.4009274201        1.1961666201       -5.3454982775
  H         5.0326268549        1.4571097750       -6.2820870000
  O         0.7365184732       -1.9176950430       -1.2724577473
  H         0.4366627686       -2.6685959517       -1.8452499204
  H        -0.0280723827       -1.6346960324       -0.7323636982
  O         3.9005939808        2.6221972296        0.0824981180
  H         4.6603628952        2.4136405159       -0.4885023274
  H         3.3619307241        3.2465911837       -0.4599512808
  O        -1.0991624885       -1.3693412589        2.9498880034
  H        -0.3354058556       -2.0369012425        3.1075024163
  H        -1.8473458549       -1.9916364646        3.2032143743
  O         2.0718451094       -5.6501678174        1.3629079156
  H         1.2043618452       -6.1369822674        1.2560686630
  H         2.4507495844       -5.8859092245        2.2558212721
  O        -0.6280310316       -3.8273493362       -2.8460859716
  H        -1.5583639221       -3.7769636412       -2.5811140145
  H        -0.5112292363       -4.5879523025       -3.3982225959
  O        -5.2918433010        2.0621670074        1.4353011132
  H        -4.4549447831        1.8776050679        1.9014549175
  H        -5.1335936869        1.9198214761        0.4197228743
  O         1.9599719653       -3.4245632717       -5.2673604360
  H         1.3225562775       -4.2123092010       -5.0388832852
  H         1.2999292168       -2.7711468268       -5.4986783863
  O        -1.1933205846        3.9368513830       -3.3737465077
  H        -1.2003012694        3.9803649971       -4.3582935942
  H        -0.7402505311        4.6500956055       -2.9405594580
  O        -5.4243979802       -5.0029807582        4.2784625506
  H        -6.1164034705       -4.5127003053        3.7817315683
  H        -4.7403199519       -5.3498607764        3.6920944114
  O         2.9732984993        5.7937546317        3.6041830736
  H         3.4176710045        6.4726708296        4.1695014822
  H         2.4485201643        5.2041088060        4.2250869218
  O        -4.0511295134        1.5445925671       -5.0626498585
  H        -3.5387103609        0.7974835831       -4.6210546124
  H        -4.0333821170        2.3518494025       -4.4301366268
  O         3.4847726839        0.5997692637        4.0091486817
  H         2.7896502362        0.5375110591        3.2686671028
  H         4.3189983631        0.4153324309        3.4395276451
  O        -4.6207476869       -1.0117618538        4.0048952776
  H        -5.3477593066       -1.2443059233        4.6253237945
  H        -4.2163881176       -1.8844792105        3.8428058821
  O        -0.2165387154        1.2751467697        3.1167167744
  H         0.6371782887        1.4136801810        2.7286969429
  H        -0.3894124526        0.3225841245        3.0508790291
  O        -1.9915351632        5.0697083632        0.6000194332
  H        -2.3376502958        4.2340876605        1.0013898546
  H        -2.6520248188        5.7471163392        0.8506616742
  O        -1.3075474036       -1.8956122645       -4.9542920356
  H        -0.8701251561       -2.4028189929       -4.2563741889
  H        -0.5949693850       -1.3532124979       -5.4532434800
  O        -5.1373452268        1.8062068789       -1.2867681226
  H        -4.6981592560        2.4597481938       -1.8505668997
  H        -5.4245526684        1.1256927260       -1.8633945543
  O        -7.3836561358       -1.2119873462       -1.9506599575
  H        -6.4212881329       -1.0371432188       -2.1463799566
  H        -7.4808782211       -1.5310477918       -1.0339482458
  H        -1.4639445925        0.4048471789       -2.7228637494
  O        -0.4639445925        1.4048471789       -1.7228637494
  H        -0.7867348868        2.1866499220       -2.1962304023
  H         0.2743927320        0.9864157199       -2.2215845685
  O        -0.0298107043       -6.5210921839       -1.0933643185
  H         0.0021424143       -5.5311453888       -1.1226646288
  H        -0.8031132631       -6.7435142146       -0.4648562320
  O         5.7090935537       -1.6927086580        6.0185486672
  H         6.0227718591       -2.5102376528        6.4195407580
  H         5.6793497711       -0.9012395738        6.6521961143
  O        -2.5962982991       -5.7683972037       -4.2195771395
  H        -2.6049028140       -6.7077669400       -4.4728336739
  H        -3.4354537463       -5.5645841736       -3.8483514813
  O        -4.9449687319       -1.4086720170       -3.2473392351
  H        -4.8913021653       -2.2217322989       -3.7674224672
  H        -3.9689548003       -1.0964857745       -3.2341980948
  O         2.2983754229       -8.0809494482       -1.2132412662
  H         1.3003681505       -8.0636283692       -1.1143923954
  H         2.5161940132       -7.1053673603       -1.1768519202
  O         6.7754357543       -3.8965331032       -5.3359261145
  H         7.5499418595       -4.1003001805       -5.8213622687
  H         6.0430158524       -4.4328146397       -5.6479610986
  O        -0.3424844631        4.9658112476        2.9508285728
  H        -0.6418240309        4.1672557959        3.4716379980
  H        -0.6759740908        4.8699377537        2.0551376194
  O        -2.8056288807       -4.0048234272        6.2239057927
  H        -2.3850599469       -4.6322887909        6.8455564859
  H        -2.3797353004       -3.1498233269        6.4330163166
  O        -2.7925113864       -3.4732237158        3.4612331596
  H        -3.1129543056       -3.8620641144        4.2746132111
  H        -3.2856093678       -4.0271447136        2.8274407488
  O         2.4867711476        4.6803618907       -3.9511208166
  H         3.3971373036        4.5081635205       -3.6298163906
  H         1.9790712168        4.6240682409       -3.1152437525
  O         1.6590765104        0.0523137912       -3.1069189687
  H         1.5113564742       -0.5996769003       -2.3563690233
  H         2.5068721250        0.5264194699       -3.0661523880
  O        -1.2023048654       -8.1603479212       -6.3670700282
  H        -0.9055157967       -9.0690551157       -6.5705273597
  H        -2.1798096138       -8.0740016376       -6.5464905196
  O        -0.4761071273        8.3851620636        0.5987466087
  H         0.3632441731        8.3096547993        1.1058350782
  H        -1.2852386123        8.0753854402        1.0587255936
  O         5.9065449362       -6.7989771803       -6.6004398209
  H         5.4130154976       -7.6233171741       -6.9137876216
  H         6.2177506878       -6.2344541440       -7.3198720135
  O        -0.3594330297       -5.2622440761        4.6704297767
  H        -0.4156127476       -6.0988819305        4.1367481919
  H        -1.2931127588       -5.1547968831        4.9497584977
  O        -3.8273131578       -5.5279235466        1.7633664403
  H        -4.1388543582       -6.3621998573        2.1513804320
  H        -4.3955669691       -5.3216936959        1.0405948547
     193
 i =        1, time =        0.500, E =     -1102.9330301726
  O         3.8619215852       -4.7564951676        5.5096690445
  H         4.2148626844       -5.5549081831        5.9963046170
  H         3.0920465688       -4.3225501267        5.9065045357
  O        -3.5427163253        1.7429063988        4.2899713281
  H        -3.3416897014        0.8258164876        4.1543075759
  H        -3.6022599629        1.9357006441        5.2820675266
  O         4.5683064102        2.9324364925       -7.0981969609
  H         3.6679747667        3.2178104357       -6.8132429799
  H         4.4883391897        2.7946589870       -8.0524170764
  O        -2.5738403125       -0.1020830706       -3.4159557216
  H        -2.0635903243        0.4296050160       -2.8327747620
  H        -1.8795417806       -0.6227208645       -3.9239760686
  O        -3.7623068758       -7.7105705436        5.6259604757
  H        -4.6427474236       -7.4219839525        5.9939640873
  H        -3.8516005101       -7.6244732461        4.6612026085
  O        -6.7094348755       -0.0752415966        2.3189277970
  H        -6.0394561037       -0.4625115790        3.0176388710
  H        -6.2613241668        0.7368531383        1.9593162786
  O         4.0136782538       -5.5817934009       -0.4127416867
  H         3.3292335120       -5.6070777064        0.3126895627
  H         3.9119109168       -4.7475073311       -0.8220262969
  O        -2.6722640761       -3.0803269310       -1.2268543934
  H        -3.2340279887       -2.4494647729       -1.7442015967
  H        -2.2112885337       -2.5971907806       -0.5751022647
  O         5.4552469346       -3.1687629933        3.0995687114
  H         4.6941633940       -3.2357075291        3.6356292753
  H         5.2637131316       -3.0649205597        2.1390668707
  O         2.0076595061        3.8027244897       -6.6437976596
  H         1.3656305982        3.0698056147       -6.8008331293
  H         1.8274363718        4.0668494429       -5.7125664110
  O         4.0603613575       -3.8906945729       -3.0583833332
  H         3.2260912806       -3.7180928232       -3.6831258880
  H         4.3517123546       -2.9680919914       -2.9758532625
  O         1.9770764791       -1.8457750612        1.0202666597
  H         1.5809810442       -2.4650265723        1.6440977879
  H         1.6081671126       -1.9208385908        0.0643152674
  O         0.7300730632       -5.7416893761       -5.0108629212
  H         1.4785990119       -6.3202392950       -4.8150653903
  H         0.4504201164       -5.7146719703       -5.9491684549
  O        -7.5205014557       -8.6780285977       -3.2365603955
  H        -7.8692172939       -9.6017231461       -3.0944163409
  H        -7.1373054502       -8.5837456745       -2.3502282368
  O         3.0073474916       -1.6212070079        5.1699432166
  H         3.8539283647       -1.8089842600        5.6856898017
  H         3.1600863939       -0.8292208386        4.6087657221
  O        -0.0949424402        1.8623848047       -6.6869950019
  H         0.2468667042        1.0549930886       -6.3262143836
  H        -0.0518741178        1.7491663104       -7.6539247544
  O         1.3775286159       -3.0812244152        3.6600393412
  H         2.0161010728       -2.6795136318        4.3181259816
  H         1.1014572502       -3.9644949431        3.9792165235
  O        -2.3260962811        2.8032240189        2.2377636149
  H        -1.6170672478        2.1484913690        2.1998841773
  H        -2.7632333248        2.5810599742        3.0965423081
  O         0.8708013549       -0.6621562186       -5.6027969528
  H         1.7112592174       -0.8252162494       -6.1165472451
  H         1.2080006286       -0.2360650408       -4.7574336627
  O        -1.1845267657       -0.7180333359        0.2466931595
  H        -1.1313891636        0.2311703511       -0.0604706211
  H        -0.9306714058       -0.7927745726        1.1976686389
  O        -3.8865321983       -9.0117801586       -3.1296211979
  H        -4.4944724526       -8.2871447520       -3.2111964141
  H        -2.9157801247       -8.7318279656       -3.1216757093
  O         4.9795269073        4.5559789719        2.1627393795
  H         4.5679884244        4.0744607772        1.4251786363
  H         4.2101479390        4.9030261213        2.6857762832
  O         4.2048635997        1.0310177627       -3.2099710018
  H         4.6410985731        0.8575306937       -4.0545073189
  H         4.4295564734        0.1917265837       -2.7346173297
  O        -5.2084333386       -6.3467279868       -2.6854313294
  H        -5.3726649858       -6.0694458202       -1.7557115124
  H        -6.0029840414       -6.0955658364       -3.1576041950
  O         4.8281500268       -2.1529666543        0.6970236479
  H         5.1671445497       -1.3768446034        1.1630035127
  H         3.8628858382       -2.0203664139        0.7896176899
  O         2.1064411005        0.9371453716        1.6948204685
  H         2.7561116021        1.4979967001        1.2759605728
  H         2.3102995699        0.0756380312        1.2827168235
  O        -5.7574635638       -5.0942283088       -0.3633154767
  H        -6.6937429290       -5.4266286777       -0.2507289833
  H        -5.9388001067       -4.1779805123       -0.6760433981
  O        -4.8536575569        4.6337989546        2.6307159022
  H        -5.8196721638        4.7195124070        2.3664009902
  H        -4.7747426706        3.6802702985        2.2532175405
  O         5.5096490098        0.8512742716       -5.5945193943
  H         6.4009228269        1.2058398544       -5.3391653414
  H         5.0338548451        1.4696777967       -6.2855277387
  O         0.7385773553       -1.9196392635       -1.2702316660
  H         0.4488735854       -2.6600223270       -1.8532322706
  H        -0.0328186229       -1.6315575160       -0.7346646211
  O         3.8987323471        2.6226255201        0.0814274768
  H         4.6616341003        2.4151800484       -0.4838006831
  H         3.3591909625        3.2461244345       -0.4779426757
  O        -1.1002435698       -1.3672379223        2.9477931212
  H        -0.3420269253       -2.0345626634        3.1188579916
  H        -1.8444302894       -1.9902078403        3.2047201755
  O         2.0737662357       -5.6494290060        1.3590365817
  H         1.2070885198       -6.1321150870        1.2449135094
  H         2.4502621703       -5.8859867430        2.2547971834
  O        -0.6284412525       -3.8288131566       -2.8458586876
  H        -1.5647685583       -3.7828798214       -2.5856288651
  H        -0.5035821283       -4.5943583968       -3.4085284001
  O        -5.2913101792        2.0604350281        1.4344651680
  H        -4.4534405203        1.8746852048        1.8965180899
  H        -5.1117942380        1.9323507775        0.4235824123
  O         1.9563969000       -3.4231834399       -5.2645625662
  H         1.3302226555       -4.2302705511       -5.0335749200
  H         1.2902000056       -2.7635888533       -5.4982908991
  O        -1.1936722262        3.9366047707       -3.3721012405
  H        -1.1939334807        3.9767774177       -4.3502543029
  H        -0.7322439570        4.6418664426       -2.9454041547
  O        -5.4220167902       -5.0002464709        4.2806119815
  H        -6.1381033629       -4.5169795950        3.7785001886
  H        -4.7409568321       -5.3472733237        3.6969640236
  O         2.9687495739        5.7963257887        3.6000447036
  H         3.4281673505        6.4698007096        4.1620201428
  H         2.4510332064        5.1953487484        4.2164466717
  O        -4.0500256550        1.5460083974       -5.0611795706
  H        -3.5402980296        0.8017318869       -4.6352904118
  H        -4.0168918722        2.3476268585       -4.4279336569
  O         3.4854884202        0.5986539852        4.0108630744
  H         2.7859780949        0.5270094431        3.2720591655
  H         4.3187296123        0.4089791788        3.4378010890
  O        -4.6181812948       -1.0086482260        4.0039744955
  H        -5.3575124685       -1.2431076192        4.6177399059
  H        -4.2083096914       -1.8906524045        3.8496587736
  O        -0.2177887556        1.2728093379        3.1136828441
  H         0.6436535337        1.4124186471        2.7318745809
  H        -0.3843897369        0.3106461695        3.0445116340
  O        -1.9919944333        5.0676000910        0.6007524666
  H        -2.3458506847        4.2427594492        1.0072434916
  H        -2.6562147295        5.7456197749        0.8483815489
  O        -1.3033737503       -1.8924414006       -4.9559890085
  H        -0.8706589429       -2.3969858074       -4.2515312862
  H        -0.5960742955       -1.3526177684       -5.4539662067
  O        -5.1392443480        1.8053273164       -1.2845158092
  H        -4.7029483656        2.4636105787       -1.8548953137
  H        -5.4249678859        1.1373868130       -1.8626846228
  O        -7.3840419236       -1.2117200109       -1.9495136488
  H        -6.4051852094       -1.0363691908       -2.1374144223
  H        -7.4759483849       -1.5318712890       -1.0116466221
  H        -1.4457101410        0.4086810804       -2.7220981420
  O        -0.4606081175        1.4061776382       -1.7229462752
  H        -0.7795966785        2.1841368459       -2.2058647762
  H         0.2626022252        0.9816959669       -2.2291513765
  O        -0.0323543226       -6.5208466562       -1.0938699934
  H         0.0057428188       -5.5305017542       -1.1195677442
  H        -0.8161487921       -6.7467842481       -0.4740739114
  O         5.7106103026       -1.6932763704        6.0206102716
  H         6.0247565287       -2.5152338069        6.4175052773
  H         5.6852712530       -0.8911912598        6.6349418634
  O        -2.5940106454       -5.7677239163       -4.2182180987
  H        -2.6071985123       -6.7151250571       -4.4750225127
  H        -3.4436595436       -5.5726765292       -3.8532543668
  O        -4.9469302097       -1.4115505355       -3.2445574432
  H        -4.8927256923       -2.2390163107       -3.7582147582
  H        -3.9726526372       -1.0845366857       -3.2412769681
  O         2.2975633143       -8.0833367985       -1.2130289008
  H         1.2982392497       -8.0827746805       -1.1139648133
  H         2.5216627161       -7.1136670524       -1.1712093041
  O         6.7795404547       -3.8956329382       -5.3333982828
  H         7.5473862026       -4.0962299339       -5.8136248843
  H         6.0431105083       -4.4274002472       -5.6545742618
  O        -0.3454604365        4.9680846463        2.9523506728
  H        -0.6529247687        4.1684903887        3.4625485453
  H        -0.6914616619        4.8628318394        2.0441078490
  O        -2.8035071301       -4.0048300399        6.2234850056
  H        -2.3848990848       -4.6323841008        6.8495666810
  H        -2.3842972483       -3.1470428320        6.4234290257
  O        -2.7941819859       -3.4738450899        3.4609060777
  H        -3.1097939442       -3.8681481626        4.2681549852
  H        -3.2962598374       -4.0289270959        2.8380740524
  O         2.4857883980        4.6853348381       -3.9508878716
  H         3.3980270579        4.5062463773       -3.6234733733
  H         1.9906547235        4.6359424354       -3.1196345042
  O         1.6573333801        0.0488292508       -3.1075201564
  H         1.5299119329       -0.5991189885       -2.3494300632
  H         2.5089030532        0.5340578456       -3.0664351044
  O        -1.2035614387       -8.1574581000       -6.3693292654
  H        -0.9111226355       -9.0691167140       -6.5665076865
  H        -2.1830055081       -8.0665967557       -6.5504079490
  O        -0.4739036276        8.3842958261        0.5984095677
  H         0.3679073449        8.3154735993        1.1029509115
  H        -1.2981239886        8.0699225961        1.0538686925
  O         5.9080973272       -6.7980082211       -6.6008915476
  H         5.4043857289       -7.6111857946       -6.9108711167
  H         6.2456851235       -6.2406912055       -7.3200254599
  O        -0.3561010913       -5.2635453335        4.6730096284
  H        -0.4050765828       -6.0921385099        4.1400988732
  H        -1.2963738574       -5.1515068066        4.9601461345
  O        -3.8236118255       -5.5250204491        1.7612247893
  H        -4.1392969892       -6.3540168012        2.1494973912
  H        -4.4079903656       -5.3219274261        1.0403415267
     193
 i =        2, time =        1.000, E =     -1102.9814873693
  O         3.8664022263       -4.7602401770        5.5098102704
  H         4.2188016770       -5.5565772739        6.0007869048
  H         3.0847287182       -4.3206980484        5.8982172677
  O        -3.5400679854        1.7409528802        4.2924036720
  H        -3.3273193813        0.8120263937        4.1523956283
  H        -3.6038623927        1.9270958073        5.2877108778
  O         4.5691813463        2.9321513212       -7.0958543793
  H         3.6578805741        3.2087133416       -6.8183916632
  H         4.4793558113        2.8047615220       -8.0586744249
  O        -2.5737289372       -0.0984580256       -3.4158710527
  H        -2.1136164877        0.4516773033       -2.8338237931
  H        -1.8714793487       -0.6326783893       -3.9254461998
  O        -3.7630400755       -7.7104071358        5.6242864222
  H        -4.6501328911       -7.4245485324        5.9995621416
  H        -3.8532990004       -7.6110783778        4.6555246624
  O        -6.7054215157       -0.0752575831        2.3195077958
  H        -6.0389948594       -0.4722796677        3.0268964014
  H        -6.2624953635        0.7352396284        1.9585642193
  O         4.0157180112       -5.5827751353       -0.4133605642
  H         3.3240406552       -5.5955901897        0.3199043056
  H         3.9223205343       -4.7369920456       -0.8149030423
  O        -2.6757336571       -3.0798369114       -1.2277950912
  H        -3.2176263276       -2.4509925131       -1.7460295668
  H        -2.2281154188       -2.5927083271       -0.5682088451
  O         5.4529759540       -3.1688752571        3.0990641563
  H         4.6941278856       -3.2317585120        3.6525835627
  H         5.2618699320       -3.0778332274        2.1390301480
  O         2.0075894338        3.8026829782       -6.6439787926
  H         1.3570655601        3.0729775674       -6.8007931674
  H         1.8177269083        4.0683008205       -5.7124887055
  O         4.0606690563       -3.8890925646       -3.0574546026
  H         3.2239442974       -3.7207860461       -3.6661646151
  H         4.3693950526       -2.9495979814       -2.9640504709
  O         1.9777095689       -1.8463981199        1.0178360573
  H         1.6012047098       -2.4627883761        1.6421471395
  H         1.6006268676       -1.9308551725        0.0707106853
  O         0.7266619651       -5.7405958709       -5.0099858134
  H         1.4804888466       -6.3140512528       -4.8157729185
  H         0.4541644824       -5.7193309211       -5.9513903918
  O        -7.5240999540       -8.6782379164       -3.2362579724
  H        -7.8705345656       -9.5999932926       -3.1055676022
  H        -7.1416400999       -8.5907285834       -2.3492229178
  O         3.0061235307       -1.6227666832        5.1689002015
  H         3.8583621175       -1.8183354257        5.6846181936
  H         3.1584700626       -0.8326077281        4.6033930782
  O        -0.0949144137        1.8632192753       -6.6878681438
  H         0.2562920649        1.0433241362       -6.3353739534
  H        -0.0585726042        1.7595216691       -7.6525653646
  O         1.3757227906       -3.0800790423        3.6610366342
  H         2.0288395504       -2.6823219376        4.3201895896
  H         1.1043709371       -3.9641416411        3.9795648338
  O        -2.3257503365        2.8029214555        2.2411615166
  H        -1.6076911535        2.1609475800        2.2119276892
  H        -2.7695398879        2.5801041619        3.1085559066
  O         0.8672131461       -0.6628545015       -5.6044694510
  H         1.7077618212       -0.8377555798       -6.1249300370
  H         1.2204933702       -0.2379322494       -4.7626687576
  O        -1.1818427767       -0.7199375030        0.2497701717
  H        -1.1296670264        0.2257857424       -0.0468281647
  H        -0.9242618779       -0.7961618186        1.1959809712
  O        -3.8846095514       -9.0116901961       -3.1279811147
  H        -4.4911849966       -8.2901162521       -3.2104118449
  H        -2.9104249870       -8.7333213072       -3.1219543206
  O         4.9815476767        4.5540385182        2.1653834877
  H         4.5666405836        4.0857431641        1.4111134470
  H         4.2118884935        4.9014636704        2.7008317615
  O         4.2016788227        1.0333006794       -3.2070301889
  H         4.6624711336        0.8643890022       -4.0474802705
  H         4.4355560136        0.1935100591       -2.7299867013
  O        -5.2069910351       -6.3489938652       -2.6913692110
  H        -5.3631312682       -6.0527647614       -1.7382186423
  H        -6.0105271110       -6.1051673331       -3.1650924452