#     Step Nr.          Time[fs]        Kin.[a.u.]          Temp[K]            Pot.[a.u.]        Cons Qty[a.u.]        UsedTime[s]
         0            0.000000         0.275037913       300.000000000     -1102.906648693     -1102.631610781         0.000000000
         1            0.500000         0.298855825       325.979595665     -1102.933030173     -1102.633955640      5441.460168887
         2            1.000000         0.329253632       359.136268050     -1102.981487369     -1102.635468277       756.518695060
         3            1.500000         0.363337993       396.314082189     -1103.026755616     -1102.635549792       711.681596633
         4            2.000000         0.370804229       404.457944568     -1103.057004270     -1102.635666554       760.793726582
         5            2.500000         0.391114439       426.611482633     -1103.076608604     -1102.635704197       759.898630358
         6            3.000000         0.406185419       443.050286055     -1103.082595680     -1102.635508581       506.316144317
         7            3.500000         0.384315375       419.195343990     -1103.077819804     -1102.635129221       387.736852136
         8            4.000000         0.361383509       394.182211579     -1103.070679523     -1102.634777068       346.785769992
         9            4.500000         0.364957636       398.080722355     -1103.064813493     -1102.634553971       270.560584966
        10            5.000000         0.355914253       388.216572814     -1103.060884099     -1102.634459137      1047.518348552
        11            5.500000         0.351846626       383.779773165     -1103.061146245     -1102.634564270       230.171519507
        12            6.000000         0.346789248       378.263394407     -1103.062088533     -1102.634709331       230.966589518
        13            6.500000         0.334769590       365.152847544     -1103.065540287     -1102.634877456       229.066450160
        14            7.000000         0.327168436       356.861822500     -1103.069730773     -1102.635044828       210.597492963
        15            7.500000         0.342349369       373.420558046     -1103.070786728     -1102.635075408       209.391463816
        16            8.000000         0.352800831       384.820581372     -1103.074248126     -1102.635057367       210.883484706
        17            8.500000         0.331241562       361.304620481     -1103.074293271     -1102.634911966       208.713491093
        18            9.000000         0.319710900       348.727450078     -1103.074750722     -1102.634881467       210.195515871
        19            9.500000         0.322905207       352.211669018     -1103.075095139     -1102.634976984       230.461551417
        20           10.000000         0.317860994       346.709648845     -1103.073680121     -1102.635096700      1175.227765881
        21           10.500000         0.316864325       345.622524327     -1103.071997380     -1102.635089168       227.863554094
        22           11.000000         0.317643210       346.472099983     -1103.070203833     -1102.635026578       207.196508270
        23           11.500000         0.311687629       339.975997554     -1103.071835669     -1102.634991032       228.802505512
        24           12.000000         0.307626527       335.546315634     -1103.075388238     -1102.634931749       226.374545757
        25           12.500000         0.297145236       324.113755773     -1103.080325775     -1102.635000599       228.956526738
        26           13.000000         0.292403161       318.941296356     -1103.087169373     -1102.635130781       209.330476355
        27           13.500000         0.316683139       345.424893182     -1103.093409961     -1102.635157754       210.312500723
        28           14.000000         0.315860894       344.528022955     -1103.100329098     -1102.635141001       208.536488827
        29           14.500000         0.322517193       351.788439225     -1103.108512555     -1102.635165518       212.152516391
        30           15.000000         0.337451712       368.078395207     -1103.114482291     -1102.635209477      1382.153556257
        31           15.500000         0.348558958       380.193720714     -1103.119443547     -1102.635277976       205.677582901
        32           16.000000         0.337744180       368.397407706     -1103.120317856     -1102.635317108       205.043687139
        33           16.500000         0.320945982       350.074627221     -1103.119833119     -1102.635295999       205.905595455
        34           17.000000         0.322095461       351.328431022     -1103.120181781     -1102.635269089       206.641538821
        35           17.500000         0.317928017       346.782755167     -1103.121401270     -1102.635264405       205.821552675
        36           18.000000         0.310720959       338.921593334     -1103.123845272     -1102.635314600       206.613560982
        37           18.500000         0.319712410       348.729097215     -1103.123996021     -1102.635320021       205.894576818
        38           19.000000         0.307680318       335.604987917     -1103.121893623     -1102.635308865       207.091606434
        39           19.500000         0.316455085       345.176141371     -1103.124350237     -1102.635391857       205.497579910
        40           20.000000         0.311378934       339.639285386     -1103.126726907     -1102.635419659      1200.162625831
        41           20.500000         0.317493144       346.308414074     -1103.130269319     -1102.635472177       205.037577447
        42           21.000000         0.309219499       337.283863292     -1103.134704963     -1102.635609767       204.312581640
        43           21.500000         0.309816309       337.934839058     -1103.136537503     -1102.635657781       204.828567266
        44           22.000000         0.307969831       335.920777351     -1103.137227878     -1102.635690096       205.512567997
        45           22.500000         0.297565675       324.572352790     -1103.136936737     -1102.635746193       206.655581526
