LAMMPS (15 Sep 2022)
OMP_NUM_THREADS environment is not set. Defaulting to 1 thread. (src/comm.cpp:98)
  using 1 OpenMP thread(s) per MPI task
Reading restart file ...
  restart file = 15 Sep 2022, LAMMPS = 15 Sep 2022
  restoring atom style atomic from restart
  orthogonal box = (0 0 0) to (6.6943295 6.6943295 6.6943295)
  1 by 2 by 2 MPI processor grid
  restoring pair style lj/cut from restart
  360 atoms
  read_restart CPU = 0.018 seconds
Setting up equilibration run
Resetting global fix info from restart file:
  fix style: nvt, fix ID: 1
Generated 0 of 1 mixed pair_coeff terms from geometric mixing rule
All restart file global fix info was re-assigned
Neighbor list info ...
  update: every = 1 steps, delay = 20 steps, check = yes
  max neighbors/atom: 2000, page size: 100000
  master list distance cutoff = 3
  ghost atom cutoff = 3
  binsize = 1.5, bins = 5 5 5
  1 neighbor lists, perpetual/occasional/extra = 1 0 0
  (1) pair lj/cut, perpetual
      attributes: half, newton on
      pair build: half/bin/atomonly/newton
      stencil: half/bin/3d
      bin: standard
Setting up Verlet run ...
  Unit style    : lj
  Current step  : 0
  Time step     : 0.002
Per MPI rank memory allocation (min/avg/max) = 3.139 | 3.139 | 3.139 Mbytes
   Step          Temp          E_pair         E_mol          TotEng         Press     
         0   1.5214001     -5.1923617      0             -2.9166007      15.468956    
      1000   1.5243401     -5.1680822      0             -2.8879235      15.677796    
      2000   1.6907715     -5.1970825      0             -2.6679702      15.738205    
      2500   1.5282635     -5.3524107      0             -3.0663833      14.550756    
Loop time of 0.236639 on 4 procs for 2500 steps with 360 atoms

Performance: 1825564.612 tau/day, 10564.610 timesteps/s, 3.803 Matom-step/s
98.3% CPU use with 4 MPI tasks x 1 OpenMP threads

MPI task timing breakdown:
Section |  min time  |  avg time  |  max time  |%varavg| %total
---------------------------------------------------------------
Pair    | 0.12926    | 0.13375    | 0.13905    |   1.0 | 56.52
Neigh   | 0.014596   | 0.014826   | 0.015206   |   0.2 |  6.27
Comm    | 0.056123   | 0.065309   | 0.071306   |   2.2 | 27.60
Output  | 0.009966   | 0.012527   | 0.01804    |   2.9 |  5.29
Modify  | 0.0059434  | 0.006134   | 0.006342   |   0.2 |  2.59
Other   |            | 0.004097   |            |       |  1.73

Nlocal:             90 ave          93 max          87 min
Histogram: 1 0 0 0 0 2 0 0 0 1
Nghost:           1230 ave        1250 max        1211 min
Histogram: 1 1 0 0 0 0 0 1 0 1
Neighs:         5197.5 ave        5231 max        5165 min
Histogram: 1 0 0 1 0 1 0 0 0 1

Total # of neighbors = 20790
Ave neighs/atom = 57.75
Neighbor list builds = 86
Dangerous builds = 0
Total wall time: 0:00:00
LAMMPS (15 Sep 2022)
OMP_NUM_THREADS environment is not set. Defaulting to 1 thread. (src/comm.cpp:98)
  using 1 OpenMP thread(s) per MPI task
Reading restart file ...
  restart file = 15 Sep 2022, LAMMPS = 15 Sep 2022
  restoring atom style atomic from restart
  orthogonal box = (0 0 0) to (6.6943295 6.6943295 6.6943295)
  1 by 2 by 2 MPI processor grid
  restoring pair style lj/cut from restart
  360 atoms
  read_restart CPU = 0.034 seconds
Setting up equilibration run
Resetting global fix info from restart file:
  fix style: nvt, fix ID: 1
Generated 0 of 1 mixed pair_coeff terms from geometric mixing rule
All restart file global fix info was re-assigned
Neighbor list info ...
  update: every = 1 steps, delay = 20 steps, check = yes
  max neighbors/atom: 2000, page size: 100000
  master list distance cutoff = 3
  ghost atom cutoff = 3
  binsize = 1.5, bins = 5 5 5
  1 neighbor lists, perpetual/occasional/extra = 1 0 0
  (1) pair lj/cut, perpetual
      attributes: half, newton on
      pair build: half/bin/atomonly/newton
      stencil: half/bin/3d
      bin: standard
Setting up Verlet run ...
  Unit style    : lj
  Current step  : 0
  Time step     : 0.002
Per MPI rank memory allocation (min/avg/max) = 3.138 | 3.138 | 3.138 Mbytes
   Step          Temp          E_pair         E_mol          TotEng         Press     
         0   1.0108632     -6.013634       0             -4.5015511      9.960712     
      2000   0.97791638    -5.8804359      0             -4.417636       10.84871     
      4000   0.95186572    -6.0468417      0             -4.6230092      9.6139793    
      6000   0.97886946    -6.0562907      0             -4.5920652      9.5700671    
      8000   1.0168331     -5.9534857      0             -4.4324728      10.274187    
     10000   1.0837255     -5.9524617      0             -4.331389       10.462047    
     12000   0.95832388    -5.9913338      0             -4.557841       10.180617    
     12500   1.0406225     -6.1020685      0             -4.5454707      9.4486959    
Loop time of 1.06311 on 4 procs for 12500 steps with 360 atoms

Performance: 2031781.644 tau/day, 11757.996 timesteps/s, 4.233 Matom-step/s
99.2% CPU use with 4 MPI tasks x 1 OpenMP threads

MPI task timing breakdown:
Section |  min time  |  avg time  |  max time  |%varavg| %total
---------------------------------------------------------------
Pair    | 0.64408    | 0.65344    | 0.66628    |   1.0 | 61.47
Neigh   | 0.057506   | 0.058748   | 0.060244   |   0.4 |  5.53
Comm    | 0.27613    | 0.28789    | 0.29771    |   1.4 | 27.08
Output  | 0.014068   | 0.016919   | 0.02298    |   2.7 |  1.59
Modify  | 0.029036   | 0.030432   | 0.0318     |   0.8 |  2.86
Other   |            | 0.01567    |            |       |  1.47

Nlocal:             90 ave          92 max          88 min
Histogram: 1 0 1 0 0 0 0 1 0 1
Nghost:           1238 ave        1243 max        1230 min
Histogram: 1 0 0 0 0 0 1 1 0 1
Neighs:        5188.25 ave        5370 max        5014 min
Histogram: 1 0 0 0 1 1 0 0 0 1

Total # of neighbors = 20753
Ave neighs/atom = 57.647222
Neighbor list builds = 343
Dangerous builds = 0
Total wall time: 0:00:01
LAMMPS (15 Sep 2022)
OMP_NUM_THREADS environment is not set. Defaulting to 1 thread. (src/comm.cpp:98)
  using 1 OpenMP thread(s) per MPI task
Reading restart file ...
  restart file = 15 Sep 2022, LAMMPS = 15 Sep 2022
  restoring atom style atomic from restart
  orthogonal box = (0 0 0) to (6.6943295 6.6943295 6.6943295)
  1 by 2 by 2 MPI processor grid
  restoring pair style lj/cut from restart
  360 atoms
  read_restart CPU = 0.023 seconds
Setting up equilibration run
Resetting global fix info from restart file:
  fix style: nvt, fix ID: 1
Generated 0 of 1 mixed pair_coeff terms from geometric mixing rule
All restart file global fix info was re-assigned
Neighbor list info ...
  update: every = 1 steps, delay = 25 steps, check = yes
  max neighbors/atom: 2000, page size: 100000
  master list distance cutoff = 3
  ghost atom cutoff = 3
  binsize = 1.5, bins = 5 5 5
  1 neighbor lists, perpetual/occasional/extra = 1 0 0
  (1) pair lj/cut, perpetual
      attributes: half, newton on
      pair build: half/bin/atomonly/newton
      stencil: half/bin/3d
      bin: standard
Setting up Verlet run ...
  Unit style    : lj
  Current step  : 0
  Time step     : 0.002
Per MPI rank memory allocation (min/avg/max) = 3.137 | 3.137 | 3.138 Mbytes
   Step          Temp          E_pair         E_mol          TotEng         Press     
         0   0.86682428    -6.268331       0             -4.9717064      8.0526361    
      5000   0.85363894    -6.1692417      0             -4.8923402      9.0262436    
     10000   1.0349042     -6.1467294      0             -4.5986852      9.2150579    
     15000   0.87158815    -6.1693719      0             -4.8656213      8.8613711    
     20000   0.91302236    -6.1810234      0             -4.8152942      8.7471884    
     25000   0.95578697    -6.2949559      0             -4.8652579      7.9824722    
     30000   0.84109698    -6.1574803      0             -4.8993394      8.6426033    
     35000   0.89461444    -6.1811788      0             -4.8429847      8.7681104    
     37500   0.88314073    -6.1624577      0             -4.8414263      8.809592     
Loop time of 3.1437 on 4 procs for 37500 steps with 360 atoms

Performance: 2061263.510 tau/day, 11928.608 timesteps/s, 4.294 Matom-step/s
99.5% CPU use with 4 MPI tasks x 1 OpenMP threads

MPI task timing breakdown:
Section |  min time  |  avg time  |  max time  |%varavg| %total
---------------------------------------------------------------
Pair    | 1.9495     | 1.9771     | 2.0254     |   2.2 | 62.89
Neigh   | 0.16251    | 0.16428    | 0.16705    |   0.4 |  5.23
Comm    | 0.8033     | 0.85404    | 0.88188    |   3.5 | 27.17
Output  | 0.017779   | 0.020844   | 0.027367   |   2.6 |  0.66
Modify  | 0.088125   | 0.089682   | 0.091408   |   0.4 |  2.85
Other   |            | 0.03774    |            |       |  1.20

Nlocal:             90 ave          93 max          88 min
Histogram: 2 0 0 0 0 0 1 0 0 1
Nghost:         1250.5 ave        1279 max        1220 min
Histogram: 1 0 1 0 0 0 0 0 1 1
Neighs:        5195.75 ave        5409 max        4976 min
Histogram: 1 1 0 0 0 0 0 0 1 1

Total # of neighbors = 20783
Ave neighs/atom = 57.730556
Neighbor list builds = 962
Dangerous builds = 0
Total wall time: 0:00:03
LAMMPS (15 Sep 2022)
OMP_NUM_THREADS environment is not set. Defaulting to 1 thread. (src/comm.cpp:98)
  using 1 OpenMP thread(s) per MPI task
Reading restart file ...
  restart file = 15 Sep 2022, LAMMPS = 15 Sep 2022
  restoring atom style atomic from restart
  orthogonal box = (0 0 0) to (6.6943295 6.6943295 6.6943295)
  1 by 2 by 2 MPI processor grid
  restoring pair style lj/cut from restart
  360 atoms
  read_restart CPU = 0.019 seconds
Setting up equilibration run
Resetting global fix info from restart file:
  fix style: nvt, fix ID: 1
Generated 0 of 1 mixed pair_coeff terms from geometric mixing rule
All restart file global fix info was re-assigned
Neighbor list info ...
  update: every = 1 steps, delay = 25 steps, check = yes
  max neighbors/atom: 2000, page size: 100000
  master list distance cutoff = 3
  ghost atom cutoff = 3
  binsize = 1.5, bins = 5 5 5
  1 neighbor lists, perpetual/occasional/extra = 1 0 0
  (1) pair lj/cut, perpetual
      attributes: half, newton on
      pair build: half/bin/atomonly/newton
      stencil: half/bin/3d
      bin: standard
Setting up Verlet run ...
  Unit style    : lj
  Current step  : 0
  Time step     : 0.002
Per MPI rank memory allocation (min/avg/max) = 3.136 | 3.136 | 3.137 Mbytes
   Step          Temp          E_pair         E_mol          TotEng         Press     
         0   0.81376773    -6.300452       0             -5.0831911      7.8028198    
      5000   0.80760317    -6.1846958      0             -4.9766561      8.6196636    
     10000   0.84384236    -6.267293       0             -5.0050455      8.2774864    
     15000   0.8056096     -6.314924       0             -5.1098663      7.7220892    
     20000   0.84004648    -6.3399688      0             -5.0833993      7.7683076    
     25000   0.75589502    -6.4795467      0             -5.3488537      6.7477572    
     30000   0.76499011    -6.4453924      0             -5.3010947      6.8487794    
     35000   0.7649391     -6.3955619      0             -5.2513405      7.2554966    
     37500   0.80734116    -6.381291       0             -5.1736432      7.4939719    
Loop time of 3.10681 on 4 procs for 37500 steps with 360 atoms

Performance: 2085738.437 tau/day, 12070.246 timesteps/s, 4.345 Matom-step/s
99.6% CPU use with 4 MPI tasks x 1 OpenMP threads

MPI task timing breakdown:
Section |  min time  |  avg time  |  max time  |%varavg| %total
---------------------------------------------------------------
Pair    | 1.918      | 1.9546     | 2.0018     |   2.3 | 62.91
Neigh   | 0.14902    | 0.15156    | 0.15423    |   0.6 |  4.88
Comm    | 0.80107    | 0.85013    | 0.89254    |   3.9 | 27.36
Output  | 0.017506   | 0.020552   | 0.027066   |   2.7 |  0.66
Modify  | 0.087761   | 0.090641   | 0.093439   |   0.7 |  2.92
Other   |            | 0.03933    |            |       |  1.27

Nlocal:             90 ave          92 max          87 min
Histogram: 1 0 0 0 1 0 0 0 0 2
Nghost:        1240.75 ave        1267 max        1209 min
Histogram: 1 0 0 0 0 1 1 0 0 1
Neighs:           5189 ave        5452 max        5081 min
Histogram: 2 1 0 0 0 0 0 0 0 1

Total # of neighbors = 20756
Ave neighs/atom = 57.655556
Neighbor list builds = 889
Dangerous builds = 0
Total wall time: 0:00:03
LAMMPS (15 Sep 2022)
OMP_NUM_THREADS environment is not set. Defaulting to 1 thread. (src/comm.cpp:98)
  using 1 OpenMP thread(s) per MPI task
Reading restart file ...
  restart file = 15 Sep 2022, LAMMPS = 15 Sep 2022
  restoring atom style atomic from restart
  orthogonal box = (0 0 0) to (6.6943295 6.6943295 6.6943295)
  1 by 2 by 2 MPI processor grid
  restoring pair style lj/cut from restart
  360 atoms
  read_restart CPU = 0.018 seconds
Setting up equilibration run
Resetting global fix info from restart file:
  fix style: nvt, fix ID: 1
Generated 0 of 1 mixed pair_coeff terms from geometric mixing rule
All restart file global fix info was re-assigned
Neighbor list info ...
  update: every = 1 steps, delay = 25 steps, check = yes
  max neighbors/atom: 2000, page size: 100000
  master list distance cutoff = 3
  ghost atom cutoff = 3
  binsize = 1.5, bins = 5 5 5
  1 neighbor lists, perpetual/occasional/extra = 1 0 0
  (1) pair lj/cut, perpetual
      attributes: half, newton on
      pair build: half/bin/atomonly/newton
      stencil: half/bin/3d
      bin: standard
Setting up Verlet run ...
  Unit style    : lj
  Current step  : 0
  Time step     : 0.003
Per MPI rank memory allocation (min/avg/max) = 3.139 | 3.139 | 3.139 Mbytes
   Step          Temp          E_pair         E_mol          TotEng         Press     
         0   0.6658952     -6.5523372      0             -5.556269       6.092627     
      6000   0.70387728    -6.5573563      0             -5.5044732      6.2903587    
     12000   0.63041953    -6.5801682      0             -5.6371656      6.0055152    
     18000   0.67369146    -6.4471376      0             -5.4394074      6.7656639    
     24000   0.65720179    -6.5608113      0             -5.577747       6.2107011    
     30000   0.66919943    -6.4357805      0             -5.4347697      6.9880734    
     36000   0.67557826    -6.5605469      0             -5.5499944      6.2361324    
     42000   0.73820094    -6.5466063      0             -5.4423807      6.3360143    
     45000   0.68432328    -6.4689734      0             -5.4453398      6.7875186    
Loop time of 3.9339 on 4 procs for 45000 steps with 360 atoms

Performance: 2964995.915 tau/day, 11439.027 timesteps/s, 4.118 Matom-step/s
99.4% CPU use with 4 MPI tasks x 1 OpenMP threads

MPI task timing breakdown:
Section |  min time  |  avg time  |  max time  |%varavg| %total
---------------------------------------------------------------
Pair    | 2.3277     | 2.4472     | 2.5294     |   5.4 | 62.21
Neigh   | 0.2487     | 0.25201    | 0.25852    |   0.8 |  6.41
Comm    | 0.97362    | 1.0685     | 1.1914     |   8.6 | 27.16
Output  | 0.019323   | 0.02256    | 0.029545   |   2.7 |  0.57
Modify  | 0.10536    | 0.10701    | 0.10857    |   0.4 |  2.72
Other   |            | 0.03663    |            |       |  0.93

Nlocal:             90 ave          90 max          90 min
Histogram: 4 0 0 0 0 0 0 0 0 0
Nghost:           1242 ave        1255 max        1235 min
Histogram: 1 0 2 0 0 0 0 0 0 1
Neighs:        5198.25 ave        5315 max        5082 min
Histogram: 1 0 0 0 1 1 0 0 0 1

Total # of neighbors = 20793
Ave neighs/atom = 57.758333
Neighbor list builds = 1473
Dangerous builds = 103
Total wall time: 0:00:03
LAMMPS (15 Sep 2022)
OMP_NUM_THREADS environment is not set. Defaulting to 1 thread. (src/comm.cpp:98)
  using 1 OpenMP thread(s) per MPI task
Reading restart file ...
  restart file = 15 Sep 2022, LAMMPS = 15 Sep 2022
  restoring atom style atomic from restart
  orthogonal box = (0 0 0) to (6.6943295 6.6943295 6.6943295)
  1 by 2 by 2 MPI processor grid
  restoring pair style lj/cut from restart
  360 atoms
  read_restart CPU = 0.011 seconds
Setting up equilibration run
Resetting global fix info from restart file:
  fix style: nvt, fix ID: 1
Generated 0 of 1 mixed pair_coeff terms from geometric mixing rule
All restart file global fix info was re-assigned
Neighbor list info ...
  update: every = 1 steps, delay = 25 steps, check = yes
  max neighbors/atom: 2000, page size: 100000
  master list distance cutoff = 3
  ghost atom cutoff = 3
  binsize = 1.5, bins = 5 5 5
  1 neighbor lists, perpetual/occasional/extra = 1 0 0
  (1) pair lj/cut, perpetual
      attributes: half, newton on
      pair build: half/bin/atomonly/newton
      stencil: half/bin/3d
      bin: standard
Setting up Verlet run ...
  Unit style    : lj
  Current step  : 0
  Time step     : 0.003
Per MPI rank memory allocation (min/avg/max) = 3.138 | 3.138 | 3.139 Mbytes
   Step          Temp          E_pair         E_mol          TotEng         Press     
         0   0.58960392    -6.4854017      0             -5.6034525      6.4768742    
     70000   0.68622606    -6.539853       0             -5.5133731      6.2071634    
     87500   0.6781784     -6.7051876      0             -5.6907457      5.1575375    
Loop time of 7.51805 on 4 procs for 87500 steps with 360 atoms

Performance: 3016741.635 tau/day, 11638.664 timesteps/s, 4.190 Matom-step/s
99.4% CPU use with 4 MPI tasks x 1 OpenMP threads

MPI task timing breakdown:
Section |  min time  |  avg time  |  max time  |%varavg| %total
---------------------------------------------------------------
Pair    | 4.5343     | 4.6414     | 4.8992     |   6.9 | 61.74
Neigh   | 0.46505    | 0.46889    | 0.47525    |   0.6 |  6.24
Comm    | 1.8107     | 2.0648     | 2.1683     |  10.2 | 27.46
Output  | 0.058281   | 0.061874   | 0.069521   |   1.8 |  0.82
Modify  | 0.20196    | 0.20906    | 0.21662    |   1.3 |  2.78
Other   |            | 0.07198    |            |       |  0.96

Nlocal:             90 ave          91 max          88 min
Histogram: 1 0 0 0 0 0 1 0 0 2
Nghost:           1249 ave        1258 max        1244 min
Histogram: 2 0 0 1 0 0 0 0 0 1
Neighs:         5195.5 ave        5313 max        4954 min
Histogram: 1 0 0 0 0 0 1 0 0 2

Total # of neighbors = 20782
Ave neighs/atom = 57.727778
Neighbor list builds = 2753
Dangerous builds = 104
Total wall time: 0:00:07
LAMMPS (15 Sep 2022)
OMP_NUM_THREADS environment is not set. Defaulting to 1 thread. (src/comm.cpp:98)
  using 1 OpenMP thread(s) per MPI task
Reading restart file ...
  restart file = 15 Sep 2022, LAMMPS = 15 Sep 2022
  restoring atom style atomic from restart
  orthogonal box = (0 0 0) to (6.6943295 6.6943295 6.6943295)
  1 by 2 by 2 MPI processor grid
  restoring pair style lj/cut from restart
  360 atoms
  read_restart CPU = 0.012 seconds
Setting up equilibration run
Resetting global fix info from restart file:
  fix style: nvt, fix ID: 1
Generated 0 of 1 mixed pair_coeff terms from geometric mixing rule
All restart file global fix info was re-assigned
Neighbor list info ...
  update: every = 1 steps, delay = 25 steps, check = yes
  max neighbors/atom: 2000, page size: 100000
  master list distance cutoff = 3
  ghost atom cutoff = 3
  binsize = 1.5, bins = 5 5 5
  1 neighbor lists, perpetual/occasional/extra = 1 0 0
  (1) pair lj/cut, perpetual
      attributes: half, newton on
      pair build: half/bin/atomonly/newton
      stencil: half/bin/3d
      bin: standard
Setting up Verlet run ...
  Unit style    : lj
  Current step  : 0
  Time step     : 0.003
Per MPI rank memory allocation (min/avg/max) = 3.14 | 3.14 | 3.14 Mbytes
   Step          Temp          E_pair         E_mol          TotEng         Press     
         0   0.59618546    -6.6688587      0             -5.7770646      5.3676529    
     50000   0.58571024    -6.71056        0             -5.8344351      4.9942593    
    100000   0.61232065    -6.691901       0             -5.7759714      5.2932611    
    150000   0.51101984    -6.70271        0             -5.9383095      5.0375426    
    200000   0.59841701    -6.756765       0             -5.8616329      4.6155228    
    250000   0.59983615    -6.6361312      0             -5.7388763      5.579378     
Loop time of 20.9532 on 4 procs for 250000 steps with 360 atoms

Performance: 3092604.036 tau/day, 11931.343 timesteps/s, 4.295 Matom-step/s
99.5% CPU use with 4 MPI tasks x 1 OpenMP threads

MPI task timing breakdown:
Section |  min time  |  avg time  |  max time  |%varavg| %total
---------------------------------------------------------------
Pair    | 12.832     | 13.083     | 13.503     |   7.0 | 62.44
Neigh   | 1.2652     | 1.2736     | 1.2794     |   0.5 |  6.08
Comm    | 5.275      | 5.6857     | 5.9264     |  10.3 | 27.14
Output  | 0.10107    | 0.10487    | 0.11287    |   1.4 |  0.50
Modify  | 0.58059    | 0.59458    | 0.61248    |   1.5 |  2.84
Other   |            | 0.2113     |            |       |  1.01

Nlocal:             90 ave          93 max          88 min
Histogram: 1 0 1 0 1 0 0 0 0 1
Nghost:         1241.5 ave        1250 max        1227 min
Histogram: 1 0 0 0 0 0 1 0 0 2
Neighs:        5206.75 ave        5357 max        5104 min
Histogram: 2 0 0 0 0 1 0 0 0 1

Total # of neighbors = 20827
Ave neighs/atom = 57.852778
Neighbor list builds = 7467
Dangerous builds = 142
Total wall time: 0:00:20
LAMMPS (15 Sep 2022)
OMP_NUM_THREADS environment is not set. Defaulting to 1 thread. (src/comm.cpp:98)
  using 1 OpenMP thread(s) per MPI task
Reading restart file ...
  restart file = 15 Sep 2022, LAMMPS = 15 Sep 2022
  restoring atom style atomic from restart
  orthogonal box = (0 0 0) to (6.6943295 6.6943295 6.6943295)
  1 by 2 by 2 MPI processor grid
  restoring pair style lj/cut from restart
  360 atoms
  read_restart CPU = 0.043 seconds
Setting up equilibration run
Resetting global fix info from restart file:
  fix style: nvt, fix ID: 1
Generated 0 of 1 mixed pair_coeff terms from geometric mixing rule
All restart file global fix info was re-assigned
Neighbor list info ...
  update: every = 1 steps, delay = 25 steps, check = yes
  max neighbors/atom: 2000, page size: 100000
  master list distance cutoff = 3
  ghost atom cutoff = 3
  binsize = 1.5, bins = 5 5 5
  1 neighbor lists, perpetual/occasional/extra = 1 0 0
  (1) pair lj/cut, perpetual
      attributes: half, newton on
      pair build: half/bin/atomonly/newton
      stencil: half/bin/3d
      bin: standard
Setting up Verlet run ...
  Unit style    : lj
  Current step  : 0
  Time step     : 0.003
Per MPI rank memory allocation (min/avg/max) = 3.137 | 3.138 | 3.139 Mbytes
   Step          Temp          E_pair         E_mol          TotEng         Press     
         0   0.55481571    -6.7588133      0             -5.9289015      4.7707534    
     30000   0.55079752    -6.8369997      0             -6.0130984      4.2081817    
     60000   0.55706833    -6.7993763      0             -5.9660949      4.4732563    
     90000   0.52207469    -6.8521949      0             -6.0712582      4.0470209    
    120000   0.52523366    -6.788104       0             -6.0024419      4.4851411    
    150000   0.54089449    -6.8388731      0             -6.0297851      4.2823964    
    180000   0.58205476    -6.7830529      0             -5.912396       4.7288935    
    210000   0.54378243    -6.8413608      0             -6.0279529      4.1856181    
    240000   0.55250079    -6.8044878      0             -5.9780387      4.480696     
    270000   0.5301995     -6.8001163      0             -6.0070262      4.503676     
    300000   0.55389952    -6.823584       0             -5.9950426      4.3870974    
    330000   0.53429265    -6.7906182      0             -5.9914054      4.6644549    
    360000   0.53667168    -6.8211688      0             -6.0183974      4.5268895    
    390000   0.52924235    -6.8066524      0             -6.0149941      4.4333143    
    420000   0.51448355    -6.8165298      0             -6.0469482      4.3722979    
    450000   0.52490147    -6.7139079      0             -5.9287428      5.0674593    
    480000   0.55325124    -6.8159133      0             -5.9883416      4.3327222    
    510000   0.55008521    -6.8160819      0             -5.9932462      4.3590469    
    540000   0.54685383    -6.780385       0             -5.9623829      4.534463     
    570000   0.54684857    -6.8005864      0             -5.9825921      4.2598882    
    600000   0.53013241    -6.7815359      0             -5.9885462      4.4255912    
    630000   0.56269416    -6.8265939      0             -5.9848972      4.3753187    
    660000   0.58633353    -6.7705963      0             -5.8935391      4.6143634    
    690000   0.54362148    -6.8125269      0             -5.9993598      4.3934534    
    720000   0.56122948    -6.787865       0             -5.9483593      4.6485243    
    750000   0.5591647     -6.7372369      0             -5.9008197      4.9835769    
Loop time of 62.17 on 4 procs for 750000 steps with 360 atoms

Performance: 3126908.262 tau/day, 12063.689 timesteps/s, 4.343 Matom-step/s
99.6% CPU use with 4 MPI tasks x 1 OpenMP threads

MPI task timing breakdown:
Section |  min time  |  avg time  |  max time  |%varavg| %total
---------------------------------------------------------------
Pair    | 38.806     | 39.112     | 39.408     |   3.4 | 62.91
Neigh   | 3.5741     | 3.6027     | 3.6531     |   1.6 |  5.79
Comm    | 16.621     | 16.977     | 17.311     |   5.9 | 27.31
Output  | 0.035834   | 0.039782   | 0.048145   |   2.5 |  0.06
Modify  | 1.7747     | 1.7878     | 1.802      |   0.8 |  2.88
Other   |            | 0.65       |            |       |  1.05

Nlocal:             90 ave          95 max          86 min
Histogram: 1 0 1 0 0 1 0 0 0 1
Nghost:         1248.5 ave        1269 max        1233 min
Histogram: 1 0 1 0 1 0 0 0 0 1
Neighs:           5204 ave        5563 max        4953 min
Histogram: 1 0 0 2 0 0 0 0 0 1

Total # of neighbors = 20816
Ave neighs/atom = 57.822222
Neighbor list builds = 21188
Dangerous builds = 157
Total wall time: 0:01:02
LAMMPS (15 Sep 2022)
OMP_NUM_THREADS environment is not set. Defaulting to 1 thread. (src/comm.cpp:98)
  using 1 OpenMP thread(s) per MPI task
Reading restart file ...
  restart file = 15 Sep 2022, LAMMPS = 15 Sep 2022
  restoring atom style atomic from restart
  orthogonal box = (0 0 0) to (6.6943295 6.6943295 6.6943295)
  1 by 2 by 2 MPI processor grid
  restoring pair style lj/cut from restart
  360 atoms
  read_restart CPU = 0.017 seconds
Setting up equilibration run
Resetting global fix info from restart file:
  fix style: nvt, fix ID: 1
Generated 0 of 1 mixed pair_coeff terms from geometric mixing rule
All restart file global fix info was re-assigned
Neighbor list info ...
  update: every = 1 steps, delay = 25 steps, check = yes
  max neighbors/atom: 2000, page size: 100000
  master list distance cutoff = 3
  ghost atom cutoff = 3
  binsize = 1.5, bins = 5 5 5
  1 neighbor lists, perpetual/occasional/extra = 1 0 0
  (1) pair lj/cut, perpetual
      attributes: half, newton on
      pair build: half/bin/atomonly/newton
      stencil: half/bin/3d
      bin: standard
Setting up Verlet run ...
  Unit style    : lj
  Current step  : 0
  Time step     : 0.003
Per MPI rank memory allocation (min/avg/max) = 3.14 | 3.14 | 3.141 Mbytes
   Step          Temp          E_pair         E_mol          TotEng         Press     
         0   0.4879122     -6.8919193      0             -6.162084       3.7676154    
    100000   0.47374326    -6.9065108      0             -6.1978698      3.6703474    
    200000   0.50112145    -6.8896327      0             -6.1400386      3.8854488    
    300000   0.46898091    -6.9253636      0             -6.2238463      3.7189715    
    400000   0.50635877    -6.8473423      0             -6.089914       4.0721932    
    500000   0.55188657    -6.9147295      0             -6.0891992      3.8154119    
    600000   0.51449048    -6.9194878      0             -6.1498958      3.6196215    
    700000   0.50945152    -6.8208856      0             -6.0588311      4.3628561    
    800000   0.56901053    -6.8186077      0             -5.9674627      4.4999509    
    900000   0.4836583     -6.8540791      0             -6.1306069      3.9489652    
   1000000   0.51074364    -6.9088817      0             -6.1448943      4.0381322    
   1100000   0.50638541    -6.8973583      0             -6.1398902      3.8147393    
   1200000   0.49800862    -6.8001334      0             -6.0551955      4.489064     
   1300000   0.51054242    -6.8260166      0             -6.0623302      4.2100905    
   1400000   0.49545219    -6.9138008      0             -6.1726869      3.6851741    
   1500000   0.49072485    -6.8623867      0             -6.1283441      4.1137688    
   1600000   0.50129446    -6.9149603      0             -6.1651074      3.6136925    
   1700000   0.49787371    -6.9622729      0             -6.2175368      3.3614039    
   1800000   0.5148343     -6.8856926      0             -6.1155863      4.070772     
   1900000   0.45986697    -6.8872969      0             -6.1994125      4.0001743    
   2000000   0.54744989    -6.937234       0             -6.1183402      3.6175132    
   2100000   0.4676234     -6.9363699      0             -6.2368832      3.5088379    
   2200000   0.51196149    -6.8810369      0             -6.1152278      3.9827547    
   2300000   0.50384221    -6.8851142      0             -6.1314502      3.9777626    
   2400000   0.49491059    -6.9798511      0             -6.2395474      3.2665936    
   2500000   0.50646175    -6.8547288      0             -6.0971465      4.0825354    
Loop time of 208.466 on 4 procs for 2500000 steps with 360 atoms

Performance: 3108414.149 tau/day, 11992.339 timesteps/s, 4.317 Matom-step/s
99.6% CPU use with 4 MPI tasks x 1 OpenMP threads

MPI task timing breakdown:
Section |  min time  |  avg time  |  max time  |%varavg| %total
---------------------------------------------------------------
Pair    | 128.07     | 131.02     | 133.69     |  19.3 | 62.85
Neigh   | 11.124     | 11.363     | 11.618     |   5.8 |  5.45
Comm    | 55.272     | 57.854     | 60.904     |  29.8 | 27.75
Output  | 0.038943   | 0.043043   | 0.051924   |   2.5 |  0.02
Modify  | 5.7205     | 5.922      | 6.0662     |   5.4 |  2.84
Other   |            | 2.261      |            |       |  1.08

Nlocal:             90 ave          95 max          87 min
Histogram: 1 1 0 1 0 0 0 0 0 1
Nghost:         1234.5 ave        1255 max        1214 min
Histogram: 1 0 0 1 0 0 1 0 0 1
Neighs:           5181 ave        5440 max        4938 min
Histogram: 1 0 0 1 0 0 1 0 0 1

Total # of neighbors = 20724
Ave neighs/atom = 57.566667
Neighbor list builds = 66398
Dangerous builds = 150
Total wall time: 0:03:28
LAMMPS (15 Sep 2022)
OMP_NUM_THREADS environment is not set. Defaulting to 1 thread. (src/comm.cpp:98)
  using 1 OpenMP thread(s) per MPI task
Reading restart file ...
ERROR on proc 0: Cannot open restart file equil/kalj_T0.475_n360_v300_30000000_1.final.lmprestart.30000000: No such file or directory (src/read_restart.cpp:113)
Last command: read_restart ${prevbasename}.final.lmprestart.${steps}
--------------------------------------------------------------------------
MPI_ABORT was invoked on rank 0 in communicator MPI_COMM_WORLD
with errorcode 1.

NOTE: invoking MPI_ABORT causes Open MPI to kill all MPI processes.
You may or may not see output from other processes, depending on
exactly when Open MPI kills them.
--------------------------------------------------------------------------
[warn] Epoll MOD(1) on fd 24 failed.  Old events were 6; read change was 0 (none); write change was 2 (del): Bad file descriptor
[warn] Epoll MOD(4) on fd 24 failed.  Old events were 6; read change was 2 (del); write change was 0 (none): Bad file descriptor
Error: LAMMPS production simulation at temperature 0.475 failed.
